38
Atoms. Timestep: 0
Ar 1.668 1.873 0
Ar 5.651 1.903 0.003
Ar 1.878 5.656 -0.01
Ar -1.867 1.863 -0.007
Ar -5.65 1.873 -0.014
Ar -1.898 5.645 -0.014
Ar -1.857 -1.873 0
Ar -5.64 -1.903 -0.003
Ar -1.867 -5.656 0.01
Ar 1.878 -1.863 0.007
Ar 5.661 -1.873 0.014
Ar 1.909 -5.645 0.014
Ar 0.002 0.007 2.642
Ar 3.751 0.017 2.659
Ar -3.75 -0.003 2.646
Ar -0.008 3.756 2.646
Ar 0.012 -3.745 2.659
Ar 3.761 3.786 2.656
Ar -3.778 3.766 2.646
Ar -3.757 -3.773 2.663
Ar 3.781 -3.752 2.673
Ar 0.009 -0.007 -2.642
Ar 3.761 0.003 -2.646
Ar -3.74 -0.017 -2.659
Ar -0.002 3.746 -2.659
Ar 0.019 -3.756 -2.646
Ar 3.768 3.773 -2.663
Ar -3.771 3.752 -2.673
Ar -3.75 -3.786 -2.656
Ar 3.788 -3.766 -2.646
Ar 1.871 1.897 5.329
Ar -1.888 1.886 5.325
Ar -1.878 -1.873 5.332
Ar 1.881 -1.863 5.339
Ar 1.888 1.873 -5.332
Ar -1.871 1.863 -5.339
Ar -1.861 -1.897 -5.329
Ar 1.898 -1.886 -5.325
38
Atoms. Timestep: 10000
Ar 1.8438 2.00822 0.0242276
Ar 5.49587 2.04329 -0.127657
Ar 2.20183 5.64658 0.366744
Ar -1.93514 1.94851 -0.026533
Ar -5.57822 1.92697 0.0488907
Ar -1.59772 5.71546 -0.129302
Ar -1.99242 -1.95269 -0.110452
Ar -5.7067 -1.82809 -0.0691232
Ar -2.09302 -5.99446 0.33131
Ar 1.64256 -2.11703 -0.189261
Ar 5.74815 -1.73304 0.249671
Ar 1.97305 -5.798 -0.0378035
Ar -0.0498652 0.0998249 2.56532
Ar 3.72327 0.215028 2.71217
Ar -3.69544 0.0695592 2.73149
Ar 0.0435566 3.66743 2.89505
Ar -0.113467 -3.67796 2.46598
Ar 4.13657 3.82487 2.9476
Ar -3.57222 4.01503 2.6539
Ar -3.79604 -3.92398 2.70645
Ar 3.69862 -3.49985 2.74347
Ar -0.00723988 0.0231104 -2.7999
Ar 3.77065 0.023069 -2.5984
Ar -3.70928 -0.0563189 -2.7171
Ar -0.218995 3.84738 -3.01834
Ar 0.0954145 -3.94327 -2.65299
Ar 3.45374 3.9406 -2.77147
Ar -3.84495 4.02159 -2.72461
Ar -3.92607 -3.92265 -2.53945
Ar 3.96363 -3.86348 -2.56768
Ar 1.66841 1.77686 5.48383
Ar -2.02056 1.79531 5.41555
Ar -1.76489 -1.94632 5.28635
Ar 1.99848 -1.9311 5.48941
Ar 1.9343 1.88286 -5.7812
Ar -1.76151 1.7914 -5.46384
Ar -1.92643 -2.1169 -5.41485
Ar 1.92026 -1.9768 -5.37746
38
Atoms. Timestep: 20000
Ar 1.84621 1.97002 -0.139621
Ar 5.64416 1.85586 0.2551
Ar 2.10341 5.6675 -0.0446999
Ar -1.88429 1.89854 -0.085538
Ar -5.80437 1.58202 0.256541
Ar -1.73979 5.64937 -0.100683
Ar -1.95456 -1.93045 -0.0455435
Ar -5.46926 -2.13465 0.00770126
Ar -2.11561 -5.56498 -0.147893
Ar 1.96023 -1.87532 0.0272022
Ar 5.65042 -1.87488 -0.0252554
Ar 1.80453 -5.5468 0.0617507
Ar 0.0270178 0.116746 2.58697
Ar 3.6687 0.0570106 2.49764
Ar -3.76001 0.0781911 2.84325
Ar -0.0124085 3.77978 2.64281
Ar -0.010313 -3.61984 2.6954
Ar 3.72646 3.76149 2.89659
Ar -3.88947 3.83898 2.61027
Ar -3.8768 -3.71053 2.91418
Ar 3.697 -3.61465 2.69118
Ar 0.188205 -0.160568 -2.5854
Ar 3.7767 -0.112255 -2.83147
Ar -3.73107 -0.0172227 -2.61622
Ar -0.0974753 3.78919 -2.81229
Ar 0.0840871 -3.75852 -2.69055
Ar 3.94404 3.75823 -2.79368
Ar -4.13697 3.81385 -2.67945
Ar -3.79112 -3.67424 -3.01422
Ar 3.95588 -3.90975 -2.57229
Ar 1.88445 1.62547 5.59727
Ar -1.8225 1.92621 5.4458
Ar -1.81779 -1.76469 5.32119
Ar 1.79347 -1.8874 5.39332
Ar 1.93925 1.70779 -5.3521
Ar -2.14987 2.15871 -5.35987
Ar -1.72789 -1.77077 -5.38749
Ar 2.09934 -2.10648 -5.45992
38
Atoms. Timestep: 30000
Ar 1.8331 2.08042 0.00913685
Ar 5.6577 2.00318 -0.0109657
Ar 1.94183 5.89524 0.125345
Ar -1.84148 1.82392 -0.193484
Ar -5.58725 2.10319 0.113573
Ar -1.70316 5.54336 -0.0578686
Ar -1.93508 -1.92336 -0.0727667
Ar -5.83545 -1.915 -0.0329764
Ar -2.18787 -5.61901 -0.0301323
Ar 1.83297 -1.82952 -0.0325916
Ar 5.67756 -1.83521 0.117325
Ar 1.65089 -5.64322 0.150405
Ar -0.0684769 0.0260347 2.67035
Ar 3.59995 0.104867 2.64212
Ar -3.6719 -0.168134 2.76578
Ar 0.104471 3.81319 2.72231
Ar -0.0887588 -3.72625 2.67378
Ar 3.86479 3.8754 2.74596
Ar -3.55538 3.52809 2.59693
Ar -3.94816 -3.811 2.80951
Ar 3.69801 -3.65852 2.63907
Ar 0.0379312 -0.0840147 -2.59499
Ar 3.84722 0.107048 -2.57151
Ar -3.71179 -0.0718385 -2.83318
Ar 0.0337068 3.78061 -2.82835
Ar -0.0551817 -3.81501 -2.61609
Ar 3.61459 3.91211 -2.6302
Ar -3.74863 3.69654 -2.84082
Ar -3.74724 -3.79433 -2.82675
Ar 3.86512 -3.78094 -2.53995
Ar 2.04388 2.06981 5.47072
Ar -1.68311 1.61445 5.40914
Ar -1.79609 -2.13095 5.31264
Ar 1.92125 -1.87555 5.3177
Ar 1.77098 1.8279 -5.29815
Ar -2.02854 1.73753 -5.61427
Ar -1.77752 -1.92226 -5.37189
Ar 1.97712 -1.93775 -5.29486
38
Atoms. Timestep: 40000
Ar 1.9648 1.92513 -0.0703691
Ar 5.79614 1.85555 0.112997
Ar 1.98814 5.69274 -0.169
Ar -1.84239 1.93758 0.0379936
Ar -5.67105 2.16315 -0.0799758
Ar -1.94881 5.60582 -0.0125203
Ar -2.01685 -1.93527 -0.0470445
Ar -5.74851 -1.95846 -0.128593
Ar -1.78607 -5.77136 0.155879
Ar 1.89483 -1.82991 -0.0222209
Ar 5.71682 -1.79829 -0.140725
Ar 1.97982 -5.62862 0.0298194
Ar 0.0327931 0.0599669 2.6384
Ar 3.76253 -0.0246866 2.74028
Ar -3.83441 -0.0259888 2.65272
Ar 0.0514757 3.91082 2.79738
Ar -0.0763099 -3.65118 2.52896
Ar 3.73111 3.89287 2.70993
Ar -3.78492 3.6158 2.66301
Ar -3.93133 -3.86147 2.68174
Ar 3.67267 -3.71438 2.58818
Ar 0.0152555 0.0979029 -2.65146
Ar 3.7482 0.124986 -2.57697
Ar -3.80675 -0.00472124 -2.55468
Ar 0.00968941 3.73165 -2.68941
Ar -0.0410419 -3.93315 -2.58096
Ar 3.97568 3.83277 -2.67136
Ar -3.59881 3.64827 -2.7761
Ar -3.85835 -4.09993 -2.46376
Ar 3.80635 -3.64651 -2.86799
Ar 1.93713 1.81702 5.39558
Ar -1.85117 1.9946 5.33217
Ar -2.02239 -1.88354 5.39871
Ar 1.76663 -1.95771 5.19089
Ar 2.06085 1.97232 -5.35047
Ar -1.74969 1.71365 -5.4703
Ar -1.9914 -2.06004 -5.07431
Ar 1.65132 -1.80637 -5.25642
38
Atoms. Timestep: 50000
Ar 1.82079 1.94024 -0.0310309
Ar 5.86314 1.96739 -0.0188893
Ar 1.76852 5.83019 -0.0916684
Ar -1.73173 1.83701 0.0462041
Ar -5.76819 1.90952 0.0265471
Ar -1.91149 5.6901 0.0993187
Ar -1.94466 -1.99171 -0.00502912
Ar -5.74326 -1.88524 0.0225054
Ar -2.07057 -5.62078 -0.0329029
Ar 1.86002 -1.89309 -0.0345537
Ar 5.96657 -1.74825 0.0737089
Ar 1.66219 -5.94231 -0.107191
Ar 0.0991138 0.0288579 2.60738
Ar 3.80368 -0.0383591 2.55921
Ar -3.64537 0.00286112 2.6359
Ar 0.129764 3.77064 2.70884
Ar -0.0226868 -3.72799 2.67256
Ar 3.78738 3.81196 2.51042
Ar -3.77155 3.72922 2.6161
Ar -3.88798 -3.75353 2.74466
Ar 3.84165 -3.71868 2.53226
Ar -0.0144457 -0.0737182 -2.67135
Ar 3.64175 0.0257599 -2.51115
Ar -3.78163 -0.0266078 -2.58762
Ar -0.0606217 3.70965 -2.6412
Ar -0.0423704 -3.69435 -2.56531
Ar 3.71968 3.81569 -2.64335
Ar -3.89586 3.60158 -2.70672
Ar -3.8848 -3.86288 -2.76933
Ar 3.99015 -3.75188 -2.36302
Ar 2.04677 1.94747 5.25625
Ar -1.81761 1.75404 5.30313
Ar -1.90234 -1.83072 5.28118
Ar 1.8189 -1.76058 5.39428
Ar 1.9526 1.85619 -5.28287
Ar -1.90076 2.01818 -5.4131
Ar -1.93748 -1.9393 -5.45525
Ar 1.96475 -1.98557 -5.15892
38
Atoms. Timestep: 60000
Ar 1.82686 1.91184 -0.0454218
Ar 5.60855 2.12397 0.0223905
Ar 2.2476 5.60082 0.095102
Ar -1.90205 1.71839 -0.018674
Ar -5.84367 1.91218 0.0554136
Ar -1.56979 5.87627 -0.00613061
Ar -1.84656 -1.91633 0.0154504
Ar -5.79245 -1.90687 0.107471
Ar -1.69943 -5.70732 -0.12737
Ar 1.8364 -1.87191 -0.0500544
Ar 5.78277 -1.50358 -0.247435
Ar 1.89574 -5.86985 -0.0155233
Ar -0.09218 -0.00134542 2.70861
Ar 3.63378 0.064919 2.64558
Ar -3.78848 -0.034298 2.56442
Ar 0.0921467 3.6515 2.64735
Ar 0.0859168 -3.76619 2.5803
Ar 3.77219 3.66834 2.95441
Ar -3.52066 4.07707 2.53361
Ar -3.81371 -3.75215 2.62271
Ar 3.94144 -3.59998 2.42427
Ar 0.0392465 -0.114238 -2.66762
Ar 3.72688 0.1751 -2.79778
Ar -3.89459 0.0149333 -2.58381
Ar -0.00983232 3.63962 -2.69701
Ar -0.0486228 -3.8185 -2.65484
Ar 3.80151 3.86339 -2.83463
Ar -3.8665 3.81072 -2.68871
Ar -3.80345 -3.96382 -2.59842
Ar 3.97399 -3.88826 -2.54659
Ar 1.76214 1.84458 5.54571
Ar -1.96308 1.9717 5.28239
Ar -1.99876 -1.82326 5.34074
Ar 1.68412 -1.89993 5.4657
Ar 1.71495 1.77945 -5.37795
Ar -1.93889 1.7027 -5.31494
Ar -1.92449 -1.92767 -5.15917
Ar 1.89298 -2.041 -5.17956
38
Atoms. Timestep: 70000
Ar 1.94233 1.86749 -0.0305964
Ar 5.72347 2.00241 0.134253
Ar 1.94687 5.64257 -0.142989
Ar -1.9123 1.8422 -0.0479686
Ar -5.71437 1.55852 0.0652122
Ar -1.8677 5.64897 -0.140469
Ar -1.78766 -1.93261 0.0325497
Ar -5.4471 -2.18963 0.0495679
Ar -2.54707 -5.6076 -0.0334131
Ar 2.00615 -1.77545 0.0733885
Ar 5.79015 -1.9119 0.128463
Ar 1.48496 -5.62105 -0.0961061
Ar 0.0195148 0.0558886 2.62438
Ar 3.84249 0.0210784 2.61716
Ar -3.66054 -0.205881 2.73218
Ar -0.0957245 3.81643 2.53787
Ar -0.0280782 -3.84281 2.64249
Ar 3.7083 3.85561 2.60695
Ar -3.88737 3.71276 2.7113
Ar -3.80746 -3.80866 2.97971
Ar 3.59966 -3.89792 2.66564
Ar 0.0957897 0.043195 -2.5964
Ar 3.88863 0.0763332 -2.56522
Ar -3.74602 -0.0340316 -2.67161
Ar -0.0139571 3.74316 -2.66775
Ar -0.0643548 -3.57968 -2.71141
Ar 4.03979 3.87093 -2.75484
Ar -3.8739 3.7293 -2.60862
Ar -3.86795 -3.75645 -2.98801
Ar 3.76798 -3.66963 -2.51321
Ar 1.93832 1.95283 5.19472
Ar -1.77965 1.78738 5.36796
Ar -1.66884 -1.83898 5.54684
Ar 1.97986 -1.6717 5.28789
Ar 1.85027 2.04047 -5.35456
Ar -1.942 1.80344 -5.31813
Ar -1.87444 -1.84561 -5.44197
Ar 1.96391 -1.88037 -5.31527
38
Atoms. Timestep: 80000
Ar 1.86508 1.9503 0.0634654
Ar 5.73803 1.8524 -0.0561322
Ar 1.74895 5.6886 0.0121918
Ar -1.94474 1.83453 0.0289345
Ar -5.76706 1.97056 -0.0655863
Ar -1.887 5.55862 0.00495979
Ar -1.86467 -1.95213 -0.021161
Ar -5.53323 -1.7636 0.0492921
Ar -1.87628 -5.70198 -0.00339395
Ar 1.84587 -1.85679 -0.00597867
Ar 5.60031 -1.95949 -0.0967886
Ar 1.85495 -5.61591 0.065266
Ar 0.0928462 0.00732268 2.74269
Ar 3.7908 0.177811 2.59556
Ar -3.87333 -0.0777649 2.78806
Ar 0.0114957 3.74798 2.73053
Ar 0.00467192 -3.74974 2.70309
Ar 3.80074 3.98092 2.68681
Ar -3.95223 3.75493 2.73576
Ar -3.67955 -3.9018 2.70353
Ar 3.85579 -3.75132 2.77159
Ar 0.0400169 -0.0619644 -2.75564
Ar 3.73568 -0.0117644 -2.66889
Ar -3.61299 -0.0119532 -2.73892
Ar -0.0066239 3.59311 -2.63082
Ar -0.0809014 -3.70656 -2.7818
Ar 3.76354 3.70099 -2.60618
Ar -3.80208 3.73894 -2.64304
Ar -3.92438 -3.61273 -2.662
Ar 3.69787 -3.85808 -2.7037
Ar 1.90113 1.99992 5.36037
Ar -1.89427 1.84361 5.3177
Ar -1.72424 -2.04425 5.35861
Ar 2.0351 -1.75939 5.42293
Ar 1.97512 1.93415 -5.33998
Ar -1.87073 1.9396 -5.54258
Ar -1.97533 -1.93051 -5.38267
Ar 1.91367 -1.94556 -5.43609
38
Atoms. Timestep: 90000
Ar 1.86873 1.91959 0.0359334
Ar 5.58861 1.61782 -0.202038
Ar 1.84863 5.63753 0.0980326
Ar -1.86336 1.83721 -0.0390705
Ar -5.36972 2.24883 0.0266015
Ar -2.20322 5.55275 -0.0378821
Ar -1.71245 -1.90791 -0.0193902
Ar -5.55553 -1.76491 0.078081
Ar -1.63886 -5.67011 0.0725592
Ar 2.03076 -1.81483 -0.0530115
Ar 5.67814 -2.13427 0.127935
Ar 2.20402 -5.43123 0.0165335
Ar 0.105302 0.00244076 2.71166
Ar 3.91966 -0.0636192 2.76785
Ar -3.76444 0.213899 2.68166
Ar -0.0501907 3.69903 2.79683
Ar 0.032009 -3.70924 2.83226
Ar 3.93611 3.66171 2.67405
Ar -3.85681 3.85715 3.13421
Ar -3.84722 -3.90962 2.57886
Ar 3.76978 -3.68423 2.83934
Ar -0.168366 0.0362318 -2.72282
Ar 3.62458 0.045021 -2.81401
Ar -4.13147 0.0375351 -2.83337
Ar -0.0144476 3.81301 -2.65836
Ar 0.13763 -3.55404 -2.72725
Ar 3.63004 3.87533 -2.71773
Ar -3.72328 3.77302 -3.01708
Ar -3.80628 -3.9293 -2.41273
Ar 3.94739 -3.6599 -2.87251
Ar 2.0034 1.86093 5.29598
Ar -1.78051 1.7528 5.47589
Ar -2.27032 -2.04458 5.26354
Ar 1.75567 -1.81341 5.49633
Ar 1.71185 1.96488 -5.39545
Ar -1.9141 1.73549 -5.57124
Ar -2.07505 -2.21399 -5.40934
Ar 1.95533 -1.83603 -5.50082
38
Atoms. Timestep: 100000
Ar 2.01039 1.80428 -0.0307153
Ar 5.79779 1.87859 -0.0275531
Ar 2.04514 5.63563 -0.24669
Ar -1.89116 1.87996 0.0388662
Ar -5.65421 1.67603 0.00522598
Ar -1.66636 5.71564 0.00794143
Ar -2.00262 -1.85597 0.129136
Ar -5.77 -2.0924 -0.0289718
Ar -2.01572 -5.8587 0.259183
Ar 1.92449 -1.97519 -0.134082
Ar 5.70515 -1.8592 0.0948607
Ar 1.91535 -5.80836 -0.2332
Ar 0.0472322 -0.0122171 2.67704
Ar 3.68506 0.146404 2.80139
Ar -4.12043 -0.0625734 2.81765
Ar 0.0805032 3.64152 2.67082
Ar 0.0137079 -3.65782 2.74679
Ar 3.76037 3.82472 2.63637
Ar -3.73515 3.64359 2.65844
Ar -3.95358 -3.93696 2.84648
Ar 3.80859 -3.71879 2.71229
Ar 0.0359686 0.0656111 -2.64862
Ar 3.77806 -0.0127021 -2.7709
Ar -3.83355 0.0673385 -2.70593
Ar -0.0223562 3.82927 -2.70617
Ar 0.0430176 -3.70201 -2.62191
Ar 3.76004 3.59426 -2.7036
Ar -3.9752 3.78476 -2.51619
Ar -3.37186 -4.00018 -2.8737
Ar 3.87305 -3.74517 -2.91666
Ar 1.83267 1.90923 5.59988
Ar -1.87062 2.2192 5.45651
Ar -1.71293 -1.79013 5.35551
Ar 1.99915 -1.90542 5.70367
Ar 1.61786 1.92631 -5.6102
Ar -2.08942 2.20031 -5.44467
Ar -1.92293 -1.52386 -5.58789
Ar 1.87651 -1.92399 -5.41038
38
Atoms. Timestep: 110000
Ar 2.0655 1.96349 -0.0946231
Ar 5.70501 1.97769 0.0438053
Ar 2.17612 5.76713 -0.247733
Ar -1.83365 1.76102 -0.0381048
Ar -5.53436 1.90326 0.121246
Ar -2.02603 5.47312 -0.0685794
Ar -1.90175 -1.96814 0.0879516
Ar -5.55381 -2.03593 0.061966
Ar -1.86326 -5.7265 -0.118984
Ar 1.76955 -1.78811 -0.0159142
Ar 5.47317 -1.92754 0.138169
Ar 1.8187 -5.76543 0.155995
Ar -0.0536145 -0.201665 2.64756
Ar 3.71776 0.185472 2.69281
Ar -3.79973 -0.0836981 2.72378
Ar 0.087631 3.71069 2.40534
Ar -0.0324752 -3.83447 2.79488
Ar 4.15568 3.95543 2.75411
Ar -3.42285 3.67219 3.02682
Ar -3.96019 -4.37025 2.59319
Ar 3.54156 -3.50739 2.8056
Ar 0.00975111 -0.040913 -2.83659
Ar 3.70471 0.0998836 -2.71838
Ar -3.76574 0.0749884 -2.50401
Ar 0.147985 3.90269 -2.69084
Ar 0.0134826 -3.94551 -2.87066
Ar 4.22217 3.6391 -2.89287
Ar -4.0072 3.95469 -2.72138
Ar -3.83245 -3.6784 -2.66668
Ar 3.6396 -3.75496 -2.77926
Ar 1.72656 2.19858 5.17214
Ar -1.85577 1.49758 5.61383
Ar -2.10366 -2.17567 5.30922
Ar 1.87796 -1.39428 5.862
Ar 1.75264 2.07395 -5.43809
Ar -2.1905 2.04256 -5.13526
Ar -1.89937 -1.92192 -5.34991
Ar 2.03287 -1.73175 -5.82255
38
Atoms. Timestep: 120000
Ar 1.963 1.83029 -0.0505705
Ar 5.79004 1.67049 -0.0320726
Ar 2.05741 5.63485 -0.0956925
Ar -2.0317 1.76891 0.111856
Ar -5.76056 1.88549 0.00656049
Ar -2.08444 5.52648 -0.00723256
Ar -1.88807 -1.92022 0.072586
Ar -5.79764 -2.03254 0.0022069
Ar -1.9071 -5.55921 -0.048855
Ar 1.83808 -1.88465 -0.0682204
Ar 5.75077 -2.00795 -0.00631385
Ar 1.94651 -5.64091 0.0507798
Ar 0.0959615 0.0140862 2.62802
Ar 3.70625 0.122729 2.80138
Ar -3.69064 0.0374165 2.93111
Ar 0.25122 3.79009 2.53452
Ar -0.167534 -3.75477 2.74309
Ar 3.98401 3.69774 2.6317
Ar -3.51822 3.7915 2.85134
Ar -3.87291 -3.77439 2.63352
Ar 3.79349 -3.60085 2.82781
Ar -0.00651234 0.0929562 -2.67807
Ar 3.81602 0.0334981 -2.74303
Ar -3.91836 0.0163247 -2.56988
Ar -0.179295 3.65743 -2.7383
Ar 0.0998619 -3.5921 -2.69146
Ar 3.68572 3.73216 -2.66871
Ar -3.76398 3.72266 -2.67938
Ar -3.62029 -3.73682 -2.90205
Ar 3.67704 -4.05896 -2.81593
Ar 1.97513 2.12824 5.28305
Ar -1.81769 1.66934 5.39809
Ar -2.12777 -2.11733 5.51865
Ar 1.8087 -1.59708 5.45956
Ar 1.72347 1.99824 -5.34324
Ar -2.09113 1.93659 -5.4689
Ar -1.77279 -1.72855 -5.45197
Ar 2.05597 -1.75018 -5.42592
38
Atoms. Timestep: 130000
Ar 1.89787 1.77613 0.0470485
Ar 5.59313 1.90989 -0.079087
Ar 1.79764 5.78069 0.106029
Ar -1.95712 1.87607 0.142409
Ar -5.64544 1.98616 -0.104434
Ar -1.96722 5.59447 -0.131994
Ar -1.79018 -2.00499 0.247273
Ar -5.52246 -1.81522 0.000796921
Ar -1.82116 -5.81496 0.00612748
Ar 1.84745 -1.88427 0.0989649
Ar 5.71082 -1.94476 -0.00869989
Ar 2.02287 -5.60378 -0.128215
Ar -0.01261 -0.017665 2.83543
Ar 3.7069 -0.0958543 2.7521
Ar -3.72464 -0.108604 2.70967
Ar 0.0507271 3.68634 2.72375
Ar 0.0435444 -3.92277 2.77506
Ar 3.85093 3.81402 2.71666
Ar -3.80994 3.82485 2.65964
Ar -3.7991 -3.81386 2.8691
Ar 3.71908 -3.78806 2.78919
Ar 0.0125174 0.006362 -2.64159
Ar 3.69717 -0.0908757 -2.73097
Ar -3.78655 0.0126698 -2.74644
Ar 0.0294438 3.71824 -2.63415
Ar 0.0417574 -3.81489 -2.5542
Ar 3.92501 3.58607 -2.85112
Ar -3.88655 3.82111 -2.77525
Ar -3.59627 -3.69017 -2.63942
Ar 3.7342 -3.61183 -3.00727
Ar 2.04145 2.11521 5.39385
Ar -1.89523 1.91828 5.38748
Ar -1.9334 -1.78879 5.30202
Ar 1.83313 -1.93967 5.46289
Ar 1.90947 1.81626 -5.49281
Ar -1.88809 2.13147 -5.45001
Ar -1.96912 -1.73419 -5.43109
Ar 1.54198 -1.88809 -5.61873
38
Atoms. Timestep: 140000
Ar 1.8726 1.9325 0.00785633
Ar 5.61285 2.00354 0.0169264
Ar 1.78975 5.64757 -0.063315
Ar -1.91347 1.90953 0.109205
Ar -5.61078 2.13683 0.0233246
Ar -1.9219 5.47542 -0.0666958
Ar -1.81792 -1.91672 0.0699583
Ar -5.67788 -1.69153 0.164742
Ar -1.811 -5.57986 -0.0618617
Ar 1.83592 -2.03635 -0.0256954
Ar 5.74856 -1.7635 -0.162075
Ar 1.99547 -5.80524 0.14313
Ar -0.00776691 -0.0390777 2.65644
Ar 3.60015 -0.0978476 2.57727
Ar -3.78623 0.0659755 2.83376
Ar 0.045419 3.71562 2.7261
Ar 0.0766106 -3.8171 2.67814
Ar 3.90987 3.90664 2.63793
Ar -3.95326 3.98129 2.85751
Ar -3.87153 -3.75891 2.76274
Ar 3.84312 -3.74478 2.59841
Ar -0.12863 -0.100008 -2.60046
Ar 3.62094 -0.0532505 -2.62515
Ar -3.74885 0.0549894 -2.5474
Ar 0.0119463 3.63584 -2.71182
Ar -0.0127676 -3.7216 -2.82046
Ar 3.80513 3.79929 -2.69877
Ar -3.81339 3.93336 -2.76471
Ar -3.79346 -3.6706 -2.67947
Ar 3.83729 -3.84868 -2.8383
Ar 1.94903 1.88736 5.40882
Ar -1.87971 1.93778 5.43871
Ar -1.76532 -1.959 5.34226
Ar 1.87215 -2.23685 5.38591
Ar 1.89938 1.77531 -5.40251
Ar -1.8695 1.78052 -5.51048
Ar -1.83413 -1.88426 -5.51355
Ar 1.89334 -1.85322 -5.34642
38
Atoms. Timestep: 150000
Ar 1.72979 1.83644 -0.0122119
Ar 5.65973 1.97308 0.0731182
Ar 1.88853 5.81438 -0.107095
Ar -1.87412 1.87155 -0.0236142
Ar -5.65291 1.92813 0.0402421
Ar -1.8997 5.70277 -0.126528
Ar -1.90811 -1.8474 0.0340612
Ar -5.5451 -1.92389 0.0737699
Ar -1.77458 -5.6719 -0.00105622
Ar 1.79773 -1.94606 0.00764538
Ar 5.68028 -2.00798 0.0363149
Ar 1.96833 -5.77793 -0.0632036
Ar 0.127999 -0.0553931 2.76413
Ar 3.86128 -0.0536755 2.76413
Ar -3.78639 0.0675796 2.75256
Ar 0.0498092 3.79058 2.55789
Ar 0.0814351 -3.81827 2.74449
Ar 3.75569 3.66713 2.57232
Ar -3.78141 3.99441 2.5387
Ar -3.66704 -3.71756 2.77324
Ar 3.80965 -3.86965 2.64317
Ar -0.0885355 -0.110468 -2.67474
Ar 3.69423 -0.0536916 -2.58748
Ar -3.76975 0.0158064 -2.64842
Ar 0.0295362 3.92698 -2.72855
Ar -0.070844 -3.74316 -2.74429
Ar 3.68422 3.7373 -2.74462
Ar -3.88644 3.81043 -2.69125
Ar -3.87524 -3.68241 -2.65981
Ar 3.7535 -3.68375 -2.75654
Ar 1.93566 1.67683 5.37358
Ar -1.84447 1.84716 5.33509
Ar -1.84333 -1.8155 5.51083
Ar 2.0885 -2.10644 5.39693
Ar 1.79063 1.87545 -5.24561
Ar -1.8824 2.08725 -5.31076
Ar -1.94174 -1.90513 -5.45331
Ar 1.70759 -1.83201 -5.41313
38
Atoms. Timestep: 160000
Ar 1.89809 1.79337 0.109097
Ar 5.74765 2.13083 -0.121329
Ar 2.00605 5.59762 -0.0425188
Ar -1.84098 1.77902 0.0884532
Ar -5.51118 2.19816 0.0126781
Ar -1.89973 5.47832 0.0140428
Ar -1.94206 -1.91254 -0.0378427
Ar -5.84193 -1.75407 -0.0713655
Ar -1.8483 -5.69532 -0.057763
Ar 1.90452 -1.90861 0.00689916
Ar 5.63258 -1.56335 -0.109418
Ar 1.94651 -5.83683 0.0322212
Ar -0.0439244 -0.00116043 2.68466
Ar 3.83251 0.0319627 2.7717
Ar -3.8101 -0.076324 2.63645
Ar 0.18737 3.63956 2.78659
Ar -0.185489 -3.72758 2.66057
Ar 3.93808 3.71943 2.72456
Ar -3.63242 3.74138 2.89647
Ar -3.93995 -3.71857 2.67602
Ar 3.71039 -3.79088 2.58337
Ar 0.0060962 -0.109887 -2.72384
Ar 3.613 0.113135 -2.61478
Ar -3.84917 -0.0113429 -2.57561
Ar 0.029469 3.54613 -2.53463
Ar 0.10933 -3.88598 -2.6483
Ar 3.76657 3.8209 -2.92951
Ar -3.69652 3.80333 -2.82558
Ar -3.82649 -3.68632 -2.75355
Ar 3.73929 -3.77896 -2.77847
Ar 1.99447 1.98701 5.49406
Ar -1.83219 1.8239 5.5727
Ar -1.97315 -1.83725 5.34718
Ar 1.92189 -1.77716 5.29098
Ar 1.80412 1.83313 -5.50505
Ar -2.01981 1.7712 -5.32541
Ar -1.89601 -1.92427 -5.24604
Ar 1.80342 -1.81097 -5.48769
38
Atoms. Timestep: 170000
Ar 1.87289 1.8827 -0.0343132
Ar 5.81751 1.68394 -0.000252614
Ar 1.95072 5.8516 0.0649454
Ar -1.83058 1.90155 -0.00662585
Ar -5.64181 1.91295 0.0289022
Ar -1.90375 5.7021 -0.116051
Ar -1.82581 -1.78887 -0.0141738
Ar -5.55665 -2.03298 0.046211
Ar -1.85259 -5.8075 0.0712918
Ar 1.85936 -1.86169 0.00487017
Ar 5.64989 -1.99267 0.00487349
Ar 1.88101 -5.61128 -0.03973
Ar 0.0464952 -0.0786999 2.77119
Ar 3.75499 -0.277473 2.64313
Ar -3.65003 -0.131719 2.59098
Ar 0.138141 3.98859 2.59502
Ar 0.180427 -3.78724 2.79814
Ar 3.93992 3.56416 2.47612
Ar -3.75595 3.88621 2.53707
Ar -3.65677 -3.92071 2.71752
Ar 3.89104 -4.1985 2.7849
Ar -0.151896 0.134248 -2.61833
Ar 3.67933 0.0907163 -2.74709
Ar -3.86611 0.0567986 -2.70796
Ar 0.0973715 3.88696 -2.71962
Ar -0.218096 -3.65375 -2.71579
Ar 3.91191 3.86006 -2.45015
Ar -3.79806 3.85968 -2.79743
Ar -3.90438 -3.99344 -2.60695
Ar 3.68721 -3.56253 -2.73182
Ar 1.71584 2.00464 5.33733
Ar -1.827 1.98761 5.19819
Ar -1.97883 -1.86348 5.35551
Ar 1.89456 -1.91185 5.55846
Ar 1.91901 2.07331 -5.35931
Ar -1.91689 1.83815 -5.33844
Ar -2.1221 -1.90574 -5.34011
Ar 1.57167 -1.78486 -5.24052
38
Atoms. Timestep: 180000
Ar 1.93237 1.96139 -0.0379912
Ar 5.72255 2.12576 -0.0139929
Ar 1.85745 5.66333 -0.139191
Ar -1.90751 1.83245 -0.0083026
Ar -5.68027 1.9201 0.182414
Ar -1.94071 5.68243 0.182232
Ar -2.03882 -1.85879 -0.0773978
Ar -5.96781 -1.73277 0.0673705
Ar -2.00816 -5.68162 0.0359348
Ar 2.03528 -1.9698 -0.0213524
Ar 5.86591 -1.83315 -0.159622
Ar 1.88798 -5.83344 0.0470752
Ar 0.0775532 -0.0147597 2.45498
Ar 4.01011 -0.0611954 2.52736
Ar -3.62804 0.168703 2.74457
Ar 0.0831459 3.78141 2.78995
Ar -0.0257736 -3.74106 2.63276
Ar 3.84117 3.95299 2.63042
Ar -3.86125 3.83862 2.74914
Ar -4.10593 -3.78456 2.49646
Ar 3.71014 -4.0156 2.6739
Ar 0.0158654 -0.107452 -2.58222
Ar 3.86667 -0.0476007 -2.62542
Ar -3.78546 0.164442 -2.75325
Ar 0.00900784 3.71104 -2.48818
Ar -0.0659844 -3.80796 -2.58584
Ar 3.77332 3.93843 -2.82337
Ar -3.67929 3.73018 -2.54176
Ar -3.88823 -3.51645 -2.6148
Ar 3.74704 -3.94682 -2.63496
Ar 1.84165 1.8652 5.19505
Ar -1.95806 1.80063 5.55446
Ar -1.9714 -1.90638 5.11827
Ar 1.93309 -1.75772 5.27185
Ar 2.01894 1.64513 -5.34254
Ar -1.78763 1.85498 -5.26507
Ar -1.80224 -1.97427 -5.24063
Ar 1.87531 -2.04481 -5.39829
38
Atoms. Timestep: 190000
Ar 1.97112 1.92699 -0.11984
Ar 5.89598 1.89071 0.203178
Ar 2.04576 5.82887 0.0144145
Ar -2.16882 1.96439 -0.103865
Ar -5.8243 2.05138 -0.127453
Ar -1.68171 5.90368 -0.0219784
Ar -2.14575 -1.69492 -0.0979349
Ar -6.08072 -1.94454 0.144741
Ar -1.84196 -6.06897 0.164599
Ar 1.92233 -2.04893 -0.0983682
Ar 5.72489 -1.87617 0.00191232
Ar 1.97841 -5.75625 -0.067609
Ar 0.00373169 -0.0685939 2.31315
Ar 3.63131 -0.0633697 2.58553
Ar -3.82877 0.13267 2.62717
Ar 0.0787458 3.76894 2.57361
Ar 0.051991 -3.86645 2.41029
Ar 3.82019 3.75096 2.51434
Ar -3.73516 3.88432 2.48894
Ar -3.73855 -3.84756 2.48007
Ar 3.91148 -3.93034 2.69685
Ar -0.0408679 0.0135473 -2.5534
Ar 3.87735 0.0333427 -2.57106
Ar -4.1867 0.0743407 -2.70246
Ar 0.254152 4.04493 -2.64923
Ar -0.0342656 -3.89503 -2.51402
Ar 3.98044 3.66864 -2.55597
Ar -3.80864 4.19839 -2.55249
Ar -3.87833 -4.11856 -2.27522
Ar 3.82136 -3.82949 -2.67352
Ar 1.91205 1.6908 5.20289
Ar -1.9311 1.96178 5.16952
Ar -1.70955 -1.93828 5.15312
Ar 1.99552 -2.09362 5.23159
Ar 1.87432 2.07795 -5.33316
Ar -1.91915 1.90831 -5.01299
Ar -1.98654 -2.03295 -4.9599
Ar 1.79175 -1.69991 -4.98543
38
Atoms. Timestep: 200000
Ar 1.80405 1.79074 0.01145
Ar 5.53623 1.92493 -0.0983246
Ar 2.07951 5.70669 0.00404049
Ar -1.74977 1.93499 0.0254318
Ar -5.63536 2.34549 -0.0255348
Ar -2.18806 5.63068 0.210994
Ar -1.6386 -1.78413 0.0714508
Ar -5.62852 -1.63577 -0.112485
Ar -1.52729 -5.62543 -0.0051592
Ar 1.77727 -1.83003 0.123676
Ar 5.61653 -2.28142 0.0324585
Ar 2.33373 -5.69613 0.139879
Ar -0.0577422 -0.130797 2.78824
Ar 3.7246 0.0410063 2.53558
Ar -3.72704 0.125252 2.68023
Ar -0.108736 3.81514 2.77347
Ar 0.132828 -3.8973 2.75576
Ar 3.91089 3.86757 2.59838
Ar -3.78882 3.81417 3.04909
Ar -3.69041 -3.81514 2.26487
Ar 3.80142 -3.64823 3.03195
Ar -0.115736 0.0906007 -2.82205
Ar 3.75625 -0.136371 -2.56196
Ar -3.87464 0.178633 -2.66943
Ar 0.025256 3.87001 -2.76586
Ar -0.0748849 -3.78702 -2.60652
Ar 3.81865 3.51686 -3.07286
Ar -3.51387 3.78145 -2.82924
Ar -3.65245 -3.92646 -2.52016
Ar 3.5948 -3.71871 -3.02891
Ar 2.19034 1.72513 5.35029
Ar -1.65612 1.67656 5.50766
Ar -2.2763 -2.02177 5.32489
Ar 1.55565 -2.03676 5.53649
Ar 1.7705 1.77666 -5.53569
Ar -1.7836 1.91828 -5.59697
Ar -2.27375 -1.77609 -5.23907
Ar 1.53518 -1.78229 -5.32606
38
Atoms. Timestep: 210000
Ar 2.11071 1.98698 0.0239962
Ar 5.75158 1.96394 0.160415
Ar 1.98855 5.8128 -0.271162
Ar -1.84237 1.98865 0.185423
Ar -5.7483 1.96631 0.211369
Ar -1.77756 5.71555 0.168343
Ar -1.59398 -1.82383 -0.0109809
Ar -5.57495 -1.7509 -0.0923495
Ar -2.08389 -5.49969 -0.473413
Ar 2.0445 -1.84004 -0.132376
Ar 5.43953 -1.80968 0.0388865
Ar 2.25036 -5.88288 0.184646
Ar -0.0357927 -0.0601984 2.79258
Ar 3.63083 -0.151745 2.83611
Ar -3.88261 -0.232162 2.80425
Ar 0.399676 4.03708 2.69404
Ar 0.070766 -4.00026 2.61822
Ar 3.92375 3.87607 2.95246
Ar -3.68947 3.94276 2.89997
Ar -3.87459 -4.31173 2.83149
Ar 3.66251 -4.3564 3.36706
Ar 0.162382 -0.0280618 -2.7074
Ar 3.91124 -0.0229747 -2.99729
Ar -3.46452 0.0774874 -2.64931
Ar -0.052564 3.71934 -2.74958
Ar -0.050682 -3.6098 -2.91616
Ar 3.45991 3.8311 -3.37467
Ar -4.05651 3.92216 -2.51593
Ar -3.98453 -3.55674 -2.77824
Ar 3.66086 -3.87944 -2.8894
Ar 1.99938 2.28498 5.8067
Ar -1.60499 2.08302 5.37874
Ar -2.02193 -2.63785 5.32713
Ar 1.5205 -1.64491 5.6397
Ar 1.48924 1.53998 -5.59192
Ar -2.01638 2.25688 -5.54628
Ar -1.89108 -1.74476 -5.57901
Ar 1.77243 -2.16005 -5.64606
38
Atoms. Timestep: 220000
Ar 1.79406 1.74311 -0.0407616
Ar 5.69177 1.83789 -0.160996
Ar 1.98027 5.93559 0.173383
Ar -1.9983 1.91621 0.0626075
Ar -5.73741 2.0297 -0.025958
Ar -1.83645 5.67913 0.156737
Ar -1.91414 -2.01706 0.0735809
Ar -5.63289 -2.39314 -0.0991857
Ar -2.20016 -5.74653 -0.398044
Ar 2.00355 -1.98444 -0.00435701
Ar 6.06968 -1.80647 0.016302
Ar 1.64909 -5.69221 -0.175879
Ar -0.0224097 0.0162387 2.75284
Ar 3.83131 -0.240663 2.74413
Ar -3.8229 0.0691155 2.7349
Ar 0.107019 3.82542 2.53145
Ar -0.0789819 -3.57544 2.74834
Ar 3.92012 3.4966 2.68495
Ar -3.78179 3.90917 2.62775
Ar -3.85567 -3.62908 3.13342
Ar 3.81946 -4.13685 2.70507
Ar -0.159605 -0.229909 -2.65637
Ar 3.87479 0.0675276 -2.62599
Ar -3.90454 -0.0100226 -2.70952
Ar -0.0142235 3.7847 -2.55772
Ar -0.0669116 -3.82906 -2.82459
Ar 3.84692 4.03601 -2.78544
Ar -3.70669 4.12928 -2.51511
Ar -3.87805 -3.7506 -2.90698
Ar 3.91598 -3.76123 -2.54363
Ar 1.89667 1.74537 5.22704
Ar -1.53427 2.44793 5.46507
Ar -1.783 -1.79727 5.72155
Ar 1.85113 -2.0713 5.56293
Ar 1.71833 1.79536 -5.61574
Ar -2.24336 1.89992 -5.27577
Ar -1.77784 -1.80825 -5.8372
Ar 1.98147 -1.88374 -5.36281
38
Atoms. Timestep: 230000
Ar 1.95811 1.73008 0.064219
Ar 5.75016 1.85932 -0.187707
Ar 1.88706 5.50885 -0.147622
Ar -1.82903 1.98982 -0.0765606
Ar -5.62783 2.05641 0.14006
Ar -1.89397 5.97731 0.118866
Ar -1.88633 -1.76942 0.268414
Ar -5.50426 -1.73296 0.137546
Ar -2.11547 -5.697 -0.0244001
Ar 1.99075 -1.91715 -0.115972
Ar 5.67011 -1.76274 -0.257821
Ar 1.72832 -5.64733 -0.179904
Ar 0.123562 -0.160898 2.81044
Ar 3.76743 -0.0854558 2.73054
Ar -3.76606 0.192116 2.71807
Ar 0.00331214 3.83333 2.78532
Ar -0.00267708 -3.81955 2.65848
Ar 3.78682 3.67331 2.65842
Ar -3.65526 3.85007 2.51505
Ar -3.99846 -3.99279 2.80212
Ar 3.86492 -3.86171 2.49816
Ar -0.00109035 -0.0939755 -2.73709
Ar 3.78022 0.0475888 -2.7598
Ar -3.62063 -0.0499896 -2.62167
Ar -0.0521297 3.77458 -2.69636
Ar -0.17994 -3.76262 -2.53339
Ar 3.75173 3.73215 -2.74258
Ar -3.97599 3.91287 -2.66987
Ar -3.88034 -3.86233 -2.54598
Ar 3.74098 -3.76621 -2.67638
Ar 1.95791 1.7306 5.30563
Ar -1.8033 2.01995 5.40693
Ar -1.86441 -2.05034 5.43179
Ar 1.88241 -2.10836 5.62827
Ar 1.75515 1.96143 -5.47146
Ar -2.04351 1.8939 -5.34405
Ar -1.6852 -1.85257 -5.44818
Ar 1.98896 -1.74928 -5.44151
38
Atoms. Timestep: 240000
Ar 2.01394 1.96085 -0.0618826
Ar 5.81768 1.71145 -0.114949
Ar 1.881 5.66861 0.201351
Ar -1.82746 1.93602 0.00298161
Ar -5.75913 1.87614 -0.0546767
Ar -1.81608 5.74841 0.228142
Ar -1.77185 -1.8232 -0.113969
Ar -5.66084 -1.9334 0.118921
Ar -2.08204 -5.84526 0.0944775
Ar 1.89731 -1.91581 0.0186958
Ar 5.59976 -2.09173 0.406193
Ar 1.82093 -5.72591 -0.0786995
Ar 0.0631703 -0.0318126 2.67125
Ar 3.8441 0.138523 2.7478
Ar -3.7237 -0.0690869 2.66205
Ar 0.2842 3.8212 2.71204
Ar 0.0126365 -3.84757 2.58868
Ar 3.83008 3.69414 2.59737
Ar -3.75289 3.82645 2.60558
Ar -3.6962 -3.66589 2.91952
Ar 3.6797 -4.32258 2.67888
Ar -0.0915324 0.0358343 -2.69323
Ar 3.68016 0.0549048 -2.7451
Ar -3.812 0.260855 -2.58236
Ar 0.0138028 3.86967 -2.5593
Ar -0.0447579 -3.8293 -2.65251
Ar 3.6469 3.94066 -3.02016
Ar -3.9456 3.9632 -2.87331
Ar -3.85678 -3.83639 -2.61338
Ar 4.01322 -3.56151 -2.8097
Ar 2.00875 1.97266 5.59473
Ar -1.67522 2.03155 5.34792
Ar -1.74989 -1.935 5.42535
Ar 1.86479 -1.92843 5.21254
Ar 1.67776 1.67895 -5.68943
Ar -1.9698 1.91786 -5.70685
Ar -2.10603 -1.90015 -5.19546
Ar 1.6939 -1.84392 -5.2695
38
Atoms. Timestep: 250000
Ar 1.79243 1.68361 -0.0346996
Ar 5.78105 1.76212 -0.0961855
Ar 1.76888 5.82629 -0.327241
Ar -1.91192 1.87667 0.106045
Ar -5.78554 1.99834 0.336521
Ar -2.05213 5.89464 0.204859
Ar -1.87125 -1.81562 -0.0362439
Ar -5.6787 -1.87604 -0.179939
Ar -2.07543 -5.67727 0.109764
Ar 1.89001 -1.92366 -0.0497296
Ar 5.76383 -2.10911 0.157203
Ar 1.6338 -5.74737 0.0325043
Ar 0.072705 -0.0715306 2.71902
Ar 3.991 -0.0977819 2.60936
Ar -3.78805 0.0730491 2.85761
Ar 0.157109 3.90529 2.51656
Ar -0.0151638 -3.8062 2.66483
Ar 3.88353 4.04323 2.31209
Ar -3.63239 3.65912 2.7072
Ar -3.79092 -3.52855 2.74333
Ar 3.79995 -4.00367 2.50331
Ar -0.107826 0.0434706 -2.71335
Ar 3.9844 -0.0866757 -2.75631
Ar -3.83342 0.115 -2.49936
Ar -0.15897 3.6805 -2.56405
Ar -0.187892 -3.69779 -2.53042
Ar 3.93177 3.83319 -2.57588
Ar -3.91076 3.94205 -2.71936
Ar -3.90051 -3.90106 -2.97694
Ar 3.77537 -3.91599 -2.45603
Ar 1.88857 2.04496 5.0122
Ar -1.76593 1.92725 5.55795
Ar -1.75411 -2.03829 5.87893
Ar 2.08161 -2.0434 5.21512
Ar 1.82268 2.01444 -5.22132
Ar -2.02149 1.80339 -5.31895
Ar -1.70865 -2.08094 -5.76731
Ar 1.93439 -1.70467 -5.42107
38
Atoms. Timestep: 260000
Ar 1.82297 1.86119 0.124185
Ar 5.554 1.56994 -0.209283
Ar 1.90058 5.61766 0.230928
Ar -1.95046 1.91929 -0.0809913
Ar -5.75984 2.02439 -0.154323
Ar -1.79532 5.58103 0.0798971
Ar -1.84144 -1.80608 0.112357
Ar -5.72034 -1.80403 0.107047
Ar -1.87226 -5.46821 0.228439
Ar 1.86215 -1.94873 0.0343421
Ar 5.69312 -2.08112 -0.335036
Ar 2.20462 -5.62046 -0.0376591
Ar 0.0093869 0.0355341 2.73121
Ar 3.78962 -0.0757501 2.62312
Ar -3.76822 0.125662 2.58084
Ar -0.0034604 3.72875 2.70434
Ar 0.0197583 -3.83634 2.779
Ar 4.12385 3.51698 2.78656
Ar -3.74488 3.81423 2.52627
Ar -3.81223 -3.66188 2.73798
Ar 3.8745 -3.8209 2.63408
Ar -0.0905804 0.10224 -2.61897