38
Atoms. Timestep: 0
Ar 1.668 1.873 0
Ar 5.651 1.903 0.003
Ar 1.878 5.656 -0.01
Ar -1.867 1.863 -0.007
Ar -5.65 1.873 -0.014
Ar -1.898 5.645 -0.014
Ar -1.857 -1.873 0
Ar -5.64 -1.903 -0.003
Ar -1.867 -5.656 0.01
Ar 1.878 -1.863 0.007
Ar 5.661 -1.873 0.014
Ar 1.909 -5.645 0.014
Ar 0.002 0.007 2.642
Ar 3.751 0.017 2.659
Ar -3.75 -0.003 2.646
Ar -0.008 3.756 2.646
Ar 0.012 -3.745 2.659
Ar 3.761 3.786 2.656
Ar -3.778 3.766 2.646
Ar -3.757 -3.773 2.663
Ar 3.781 -3.752 2.673
Ar 0.009 -0.007 -2.642
Ar 3.761 0.003 -2.646
Ar -3.74 -0.017 -2.659
Ar -0.002 3.746 -2.659
Ar 0.019 -3.756 -2.646
Ar 3.768 3.773 -2.663
Ar -3.771 3.752 -2.673
Ar -3.75 -3.786 -2.656
Ar 3.788 -3.766 -2.646
Ar 1.871 1.897 5.329
Ar -1.888 1.886 5.325
Ar -1.878 -1.873 5.332
Ar 1.881 -1.863 5.339
Ar 1.888 1.873 -5.332
Ar -1.871 1.863 -5.339
Ar -1.861 -1.897 -5.329
Ar 1.898 -1.886 -5.325
38
Atoms. Timestep: 10000
Ar 1.93568 1.86329 0.0625403
Ar 5.71056 1.87375 0.10461
Ar 1.85641 5.62467 -0.0300025
Ar -1.8133 1.82004 -0.0178415
Ar -5.86471 1.98397 -0.014484
Ar -1.94721 5.58808 0.00400234
Ar -1.82958 -1.93079 -0.0026044
Ar -5.74889 -1.84408 0.0749873
Ar -1.87247 -5.67745 0.0279845
Ar 1.93352 -1.84227 -0.0143294
Ar 5.74843 -2.09687 0.00673197
Ar 1.99183 -5.48694 0.000799716
Ar 0.128788 0.019178 2.66603
Ar 3.94644 -0.141573 2.74781
Ar -3.74801 -0.108111 2.60841
Ar 0.0576753 3.7678 2.6386
Ar 0.0661819 -3.73575 2.64231
Ar 3.73689 3.80266 2.53634
Ar -3.86361 3.67629 2.55876
Ar -3.74418 -3.82553 2.63805
Ar 3.81208 -3.74569 2.76218
Ar -0.00769703 0.0459812 -2.76598
Ar 3.72355 0.0702567 -2.5659
Ar -3.8376 -0.0202378 -2.53233
Ar 0.0563082 3.89481 -2.75026
Ar -0.0362617 -3.77463 -2.74889
Ar 3.81547 3.80892 -2.57743
Ar -3.91727 3.70534 -2.74639
Ar -3.8466 -3.74775 -2.55569
Ar 3.81413 -3.69238 -2.85419
Ar 1.8403 2.08518 5.50919
Ar -1.88816 1.87614 5.28423
Ar -1.90954 -1.98142 5.35349
Ar 1.76991 -1.71677 5.38714
Ar 2.04881 1.82596 -5.36282
Ar -1.92011 1.8216 -5.40361
Ar -2.006 -1.90271 -5.36563
Ar 1.81024 -1.88197 -5.30581
38
Atoms. Timestep: 20000
Ar 1.86092 1.77792 -0.000326481
Ar 5.70853 1.76483 0.0188459
Ar 1.76484 5.83878 -0.0248247
Ar -1.91381 1.86633 -0.0156352
Ar -5.59679 1.94343 0.000972206
Ar -2.02651 5.5402 -0.098482
Ar -1.88379 -1.8613 0.119238
Ar -5.71707 -1.77122 -0.0752069
Ar -1.67838 -5.85941 0.00964776
Ar 1.82372 -1.92223 0.0335271
Ar 5.49474 -1.9509 -0.175946
Ar 2.07796 -5.76336 -0.0279646
Ar 0.0491127 -0.046969 2.71721
Ar 3.77758 0.00519871 2.80713
Ar -3.76263 0.0533324 2.71468
Ar -0.0843825 3.67533 2.59469
Ar -0.116443 -3.78384 2.67267
Ar 3.84225 3.92285 2.50433
Ar -3.93567 3.78364 2.87776
Ar -3.81209 -3.81759 2.48102
Ar 3.72686 -3.8351 2.86089
Ar 0.0398038 0.0733097 -2.66648
Ar 3.83282 0.0105965 -2.84711
Ar -3.68624 -0.0342172 -2.75428
Ar -0.0181882 3.77357 -2.57763
Ar 0.007549 -3.74876 -2.6285
Ar 3.81056 3.87856 -2.59448
Ar -3.82438 3.82182 -2.84049
Ar -3.64922 -3.73166 -2.48536
Ar 3.65461 -3.75711 -2.7661
Ar 2.1057 2.11101 5.37673
Ar -1.75198 1.82776 5.33473
Ar -1.97049 -2.00125 5.35411
Ar 1.81384 -1.75956 5.43766
Ar 1.85164 1.99341 -5.31501
Ar -1.80446 1.80858 -5.27661
Ar -1.85143 -2.03951 -5.37434
Ar 1.84293 -1.78548 -5.37106
38
Atoms. Timestep: 30000
Ar 1.82202 1.92713 0.0458264
Ar 5.85164 1.90502 0.120918
Ar 1.66585 5.59476 0.0326245
Ar -1.77473 1.81751 -0.0471626
Ar -5.68684 2.06355 -0.0323725
Ar -2.10194 5.57935 -0.182023
Ar -1.94518 -1.93864 0.029768
Ar -5.85076 -1.83931 0.126494
Ar -1.8313 -5.6748 -0.076155
Ar 1.84986 -1.80309 -0.0323618
Ar 5.62787 -1.88359 0.0565227
Ar 2.05157 -5.52187 -0.00844495
Ar 0.161204 -0.0521081 2.66266
Ar 3.80331 0.139586 2.60436
Ar -3.68047 -0.0596492 2.70079
Ar -0.0183275 3.69677 2.71489
Ar 0.00112819 -3.74797 2.57956
Ar 3.90402 3.84306 2.54372
Ar -3.78381 3.67666 2.61902
Ar -3.83784 -3.92668 2.75374
Ar 3.59403 -3.57432 2.80876
Ar 0.0234355 -0.0796013 -2.73795
Ar 3.75184 0.0754514 -2.64397
Ar -3.6905 -0.0080341 -2.67645
Ar 0.0652859 3.70083 -2.75781
Ar -0.0210289 -3.78223 -2.70781
Ar 3.88114 3.70856 -2.46819
Ar -3.69048 3.81556 -2.9186
Ar -3.92736 -3.85357 -2.50568
Ar 3.72793 -3.68726 -2.84311
Ar 2.05261 1.90513 5.34463
Ar -1.87888 1.80187 5.49677
Ar -1.94077 -1.9565 5.34193
Ar 1.84782 -1.84084 5.55417
Ar 2.03985 2.00102 -5.42273
Ar -1.80496 1.77026 -5.34442
Ar -1.99039 -1.95325 -5.3145
Ar 1.73515 -1.83776 -5.41738
38
Atoms. Timestep: 40000
Ar 1.85613 1.8365 -0.0857592
Ar 5.76021 1.74348 0.0388191
Ar 1.77442 5.69045 0.0372071
Ar -1.84108 1.87113 -0.0717907
Ar -5.64196 2.04125 0.0513489
Ar -2.04944 5.5844 0.0450982
Ar -1.84558 -1.86148 -0.0347979
Ar -5.54405 -1.81065 -0.012778
Ar -1.81923 -5.69361 0.0819397
Ar 1.93026 -1.81724 -0.077368
Ar 5.64545 -2.00579 -0.0626382
Ar 2.05545 -5.58558 0.0948366
Ar 0.00412662 -0.000670574 2.66287
Ar 3.80753 -0.0568237 2.62551
Ar -3.76173 -0.0328786 2.71412
Ar 0.0326585 3.63584 2.64413
Ar 0.119416 -3.63948 2.57937
Ar 3.69685 3.81352 2.60185
Ar -3.8912 3.76807 2.69605
Ar -3.74699 -3.79796 2.58849
Ar 3.68307 -3.69809 2.80213
Ar 0.0534845 0.00331451 -2.65626
Ar 3.83651 0.0263539 -2.6422
Ar -3.79813 0.0277954 -2.68162
Ar -0.0544285 3.79663 -2.61197
Ar -0.0256155 -3.67813 -2.57255
Ar 3.72525 3.86276 -2.58166
Ar -3.79351 3.7735 -2.68062
Ar -3.89993 -3.89876 -2.65671
Ar 3.601 -3.7916 -2.78892
Ar 1.84585 1.97441 5.28784
Ar -1.88653 1.90449 5.38465
Ar -1.82232 -1.9081 5.28917
Ar 1.82163 -1.84332 5.44822
Ar 1.97892 1.97748 -5.28971
Ar -1.8931 1.65942 -5.41364
Ar -1.8828 -2.02696 -5.28246
Ar 1.97139 -1.84267 -5.4702
38
Atoms. Timestep: 50000
Ar 1.90988 1.8803 -0.0520115
Ar 5.87268 1.82301 0.081185
Ar 1.69542 5.87243 -0.0113446
Ar -1.92732 1.87044 -0.0357893
Ar -5.6657 1.98719 -0.0313147
Ar -2.03619 5.71601 -0.151431
Ar -1.92394 -1.92598 -0.0259943
Ar -5.69727 -1.76647 -0.109887
Ar -1.78451 -5.71935 0.161167
Ar 1.8636 -1.86753 0.0244654
Ar 5.62805 -1.9261 0.0563414
Ar 1.90942 -5.63105 -0.00579105
Ar 0.0243209 0.0296207 2.62087
Ar 3.80405 -0.00301441 2.64369
Ar -3.71978 0.0136055 2.6802
Ar -0.0730183 3.9449 2.63047
Ar 0.0534168 -3.82857 2.71131
Ar 3.80718 3.86385 2.6813
Ar -3.76861 3.83903 2.60672
Ar -3.80356 -3.87608 2.6836
Ar 3.81968 -3.82421 2.54548
Ar -0.032071 0.0382534 -2.63108
Ar 3.73617 -0.0405364 -2.6439
Ar -3.71343 -0.0295362 -2.60553
Ar -0.0233943 3.80782 -2.76095
Ar 0.00534063 -3.73029 -2.77796
Ar 3.82907 3.81573 -2.47514
Ar -3.81341 3.74018 -2.63703
Ar -3.74858 -4.12672 -2.49899
Ar 3.75892 -3.649 -2.66015
Ar 1.9804 1.79393 5.40276
Ar -1.84195 1.83905 5.22202
Ar -1.96635 -1.91251 5.40201
Ar 1.88123 -2.01617 5.37316
Ar 1.8396 1.84298 -5.20888
Ar -1.88989 1.85406 -5.36188
Ar -1.90971 -1.85209 -5.39984
Ar 1.92224 -1.84621 -5.44185
38
Atoms. Timestep: 60000
Ar 1.87354 1.94603 -0.107708
Ar 5.73917 1.83689 -0.118221
Ar 1.74512 5.84901 -0.0358077
Ar -1.84934 1.83219 0.0215935
Ar -5.50688 1.80335 0.137439
Ar -1.93283 5.71881 -0.0211641
Ar -2.01685 -1.87339 0.0694428
Ar -5.68183 -1.78644 -0.0139849
Ar -1.86917 -5.77274 -0.0936511
Ar 1.83751 -1.77483 0.0140403
Ar 5.76159 -1.98482 0.0929726
Ar 1.92473 -5.64823 -0.0476432
Ar -0.014766 -0.0439136 2.62099
Ar 3.73358 0.0175511 2.67674
Ar -3.70708 -0.0948032 2.74622
Ar 0.0163633 3.87296 2.6906
Ar -0.0837782 -3.64002 2.55731
Ar 3.81654 3.77703 2.484
Ar -3.77804 3.76545 2.64494
Ar -3.94092 -3.94977 2.65524
Ar 3.61539 -3.80165 2.76507
Ar 0.0429867 -0.0353886 -2.77877
Ar 3.84456 0.0589601 -2.66235
Ar -3.67369 -0.00867328 -2.64585
Ar -0.0291269 3.73313 -2.70464
Ar -0.0577892 -3.63586 -2.58368
Ar 3.78805 3.93837 -2.50473
Ar -3.82305 3.64444 -2.60748
Ar -3.77447 -3.69768 -2.6205
Ar 3.80612 -3.68365 -2.60237
Ar 2.01527 2.08322 5.30893
Ar -1.74937 1.68438 5.39169
Ar -1.91759 -2.17721 5.41858
Ar 1.80234 -1.65511 5.36751
Ar 1.98196 1.93602 -5.30233
Ar -1.94566 1.80292 -5.3515
Ar -1.93794 -2.04793 -5.43535
Ar 1.94737 -1.98758 -5.42558
38
Atoms. Timestep: 70000
Ar 1.78717 1.85053 0.0995646
Ar 5.74664 1.87129 -0.108713
Ar 1.81324 5.63233 0.104586
Ar -1.86586 1.86574 -0.00153373
Ar -5.56102 1.81836 -0.152122
Ar -1.91445 5.73119 -0.027688
Ar -1.85663 -1.8455 -0.115538
Ar -5.63034 -1.90089 -0.0309606
Ar -1.77587 -5.65032 -0.00449393
Ar 1.91696 -1.83137 -0.0271305
Ar 5.61341 -1.88996 -0.149739
Ar 2.05321 -5.71375 0.162279
Ar -0.0616197 -0.0410464 2.65291
Ar 3.67371 0.0130557 2.6458
Ar -3.77398 -0.0668684 2.58325
Ar -0.0841626 3.84495 2.83512
Ar -0.0175378 -3.72879 2.64148
Ar 3.87296 3.72914 2.59323
Ar -3.72764 3.76238 2.61513
Ar -3.70017 -3.85737 2.66567
Ar 3.80465 -3.60332 2.63272
Ar 0.0133342 0.0586899 -2.55304
Ar 3.70856 -0.0758188 -2.71221
Ar -3.77044 -0.0260348 -2.75101
Ar -0.0428618 3.90271 -2.60247
Ar 0.0664872 -3.94043 -2.68773
Ar 3.76678 3.80667 -2.59112
Ar -3.67443 3.66318 -2.74007
Ar -3.85934 -3.78749 -2.58306
Ar 3.72182 -3.76196 -2.62587
Ar 1.95393 1.9442 5.28874
Ar -1.83497 1.80928 5.37067
Ar -1.92654 -1.81192 5.40297
Ar 1.78312 -1.85193 5.42945
Ar 1.96356 2.03663 -5.23133
Ar -1.84779 1.77904 -5.36527
Ar -2.07812 -2.01583 -5.34802
Ar 1.74625 -1.71777 -5.31445
38
Atoms. Timestep: 80000
Ar 1.86738 1.82993 -0.0195876
Ar 5.77315 1.9826 -0.0447673
Ar 1.83401 5.71486 -0.0696838
Ar -1.90359 1.7974 -0.0172519
Ar -5.63755 1.95792 0.0742194
Ar -1.89813 5.59881 -0.0488138
Ar -1.91003 -1.87492 0.0804121
Ar -5.70468 -1.78649 -0.0750245
Ar -1.85551 -5.80133 0.0184998
Ar 1.88884 -1.78712 0.019378
Ar 5.76284 -1.65029 -0.102242
Ar 1.89209 -5.63956 0.0445067
Ar 0.0662952 0.142283 2.68219
Ar 3.77409 -0.0862244 2.68432
Ar -3.81433 0.0375588 2.61311
Ar -0.0647159 3.7131 2.65987
Ar -0.0507111 -3.70633 2.60084
Ar 3.64558 3.69882 2.60313
Ar -3.80617 3.77394 2.7642
Ar -3.84566 -3.72828 2.57867
Ar 3.77144 -3.72827 2.5821
Ar 0.00618313 -0.0611206 -2.57391
Ar 3.77851 0.0310389 -2.68731
Ar -3.73541 -0.0610757 -2.69211
Ar -0.0570651 3.75257 -2.72553
Ar 0.118707 -3.79814 -2.67807
Ar 3.83153 3.82353 -2.69563
Ar -3.80617 3.75096 -2.5938
Ar -3.76182 -3.89925 -2.5002
Ar 3.90041 -3.72934 -2.66294
Ar 1.95885 1.80955 5.45773
Ar -1.82544 1.83915 5.4485
Ar -1.98683 -1.875 5.2534
Ar 1.71921 -1.84506 5.30184
Ar 2.01882 1.94895 -5.32227
Ar -1.89502 1.69946 -5.249
Ar -1.87789 -2.02165 -5.26937
Ar 1.8308 -1.82198 -5.43942
38
Atoms. Timestep: 90000
Ar 1.89766 1.84619 -0.0113737
Ar 5.7203 1.7385 -0.000235258
Ar 1.73564 5.64526 -0.0762337
Ar -1.90174 1.89233 -0.00471119
Ar -5.61446 1.83747 -0.0659305
Ar -2.02804 5.67037 -0.0458236
Ar -1.83106 -1.87338 -0.00152276
Ar -5.518 -1.89841 0.0470037
Ar -1.7524 -5.65333 -0.0181259
Ar 1.88394 -1.84696 0.0831417
Ar 5.62255 -1.97682 0.0636561
Ar 1.94848 -5.6716 0.0868736
Ar -0.0181026 -0.0479872 2.65888
Ar 3.7108 0.0162691 2.68551
Ar -3.71766 0.0361133 2.70019
Ar -0.0121867 3.69095 2.58791
Ar 0.05658 -3.76702 2.7483
Ar 3.7128 3.7479 2.49269
Ar -3.75955 3.74185 2.62087
Ar -3.69759 -3.84752 2.6924
Ar 3.7659 -3.76006 2.79816
Ar -0.0276496 0.10976 -2.65702
Ar 3.75216 -0.0536873 -2.69167
Ar -3.71329 -0.0485912 -2.61095
Ar -0.00862845 3.81043 -2.66366
Ar 0.0378433 -3.70997 -2.69587
Ar 3.83324 3.76559 -2.52284
Ar -3.90553 3.76362 -2.73303
Ar -3.73934 -3.8158 -2.7231
Ar 3.75649 -3.79456 -2.79026
Ar 1.88432 1.93258 5.34122
Ar -1.92576 1.89113 5.36766
Ar -1.8856 -1.86605 5.37868
Ar 1.8592 -1.8031 5.41073
Ar 1.84363 1.95671 -5.31692
Ar -1.85794 1.93722 -5.39141
Ar -1.96719 -1.84667 -5.41725
Ar 1.86218 -1.7477 -5.32594
38
Atoms. Timestep: 100000
Ar 1.82659 2.01607 -0.0561549
Ar 5.6923 1.90573 0.0356015
Ar 1.67612 5.72719 -0.0388829
Ar -1.90257 1.88103 0.0747046
Ar -5.56238 2.02002 0.00186136
Ar -2.01872 5.55131 0.0173279
Ar -1.81177 -1.9291 -0.0164782
Ar -5.62616 -1.86829 0.159656
Ar -1.89254 -5.83882 -0.0872572
Ar 1.92441 -1.85643 -0.0874047
Ar 5.73755 -1.85064 0.109093
Ar 1.85284 -5.65118 -0.0726728
Ar 0.0581955 0.0134969 2.57944
Ar 3.7356 0.0740713 2.72178
Ar -3.69715 -0.0214471 2.6536
Ar 0.000733048 3.74844 2.68424
Ar 0.00453103 -3.79003 2.57117
Ar 3.76405 3.93487 2.74877
Ar -3.77739 3.75544 2.83839
Ar -3.73967 -3.86664 2.58296
Ar 3.77379 -3.82742 2.6038
Ar 0.0123154 -0.0446468 -2.64153
Ar 3.82148 0.0772647 -2.63605
Ar -3.76966 0.0468341 -2.51383
Ar -0.00872307 3.70413 -2.7579
Ar -0.0602726 -3.81716 -2.72249
Ar 3.81447 3.83711 -2.61597
Ar -3.75166 3.70273 -2.96765
Ar -3.91595 -3.76102 -2.58246
Ar 3.89514 -3.7769 -2.75556
Ar 1.76613 1.98072 5.44824
Ar -1.87929 1.88574 5.40861
Ar -1.82947 -1.87712 5.27136
Ar 1.83857 -1.85536 5.37534
Ar 1.97702 1.88338 -5.35353
Ar -1.79799 1.71226 -5.45683
Ar -1.95243 -1.96881 -5.25523
Ar 1.82398 -1.85583 -5.26807
38
Atoms. Timestep: 110000
Ar 1.90491 1.95852 -0.125188
Ar 5.76771 1.67065 0.119974
Ar 1.82691 5.67526 -0.00682653
Ar -1.86227 1.89987 0.00971
Ar -5.61677 1.84443 0.0763886
Ar -2.20403 5.60182 -0.0285176
Ar -1.93711 -1.96132 0.00899039
Ar -5.79172 -2.15619 0.0969485
Ar -1.80334 -5.68117 0.00128883
Ar 1.82584 -1.86287 -0.0864379
Ar 5.57925 -2.14956 -0.0900852
Ar 2.07454 -5.4766 0.0212366
Ar 0.0266272 0.0189437 2.51633
Ar 3.72464 -0.108169 2.64482
Ar -3.80547 -0.0291521 2.6927
Ar -0.0832468 3.77439 2.58286
Ar 0.0708331 -3.72106 2.68499
Ar 3.70642 3.80121 2.60225
Ar -3.8559 3.69536 2.85464
Ar -3.65216 -3.83573 2.76116
Ar 3.80547 -3.75144 2.84115
Ar -0.0197521 -0.0414169 -2.58957
Ar 3.98438 0.144164 -2.63325
Ar -3.8169 0.0114055 -2.60872
Ar 0.0708247 3.80763 -2.86408
Ar 0.0591149 -3.7357 -2.7849
Ar 4.02447 3.87391 -2.5512
Ar -3.83103 3.77561 -2.79199
Ar -3.91048 -3.88725 -2.60328
Ar 3.76187 -3.62226 -2.76844
Ar 1.81106 2.0026 5.2278
Ar -1.86962 1.90375 5.30247
Ar -1.90509 -1.8496 5.39771
Ar 1.8287 -1.84077 5.50899
Ar 2.04317 1.9586 -5.29888
Ar -1.90459 1.94063 -5.39454
Ar -1.92925 -1.8281 -5.30119
Ar 1.90398 -1.81937 -5.42531
38
Atoms. Timestep: 120000
Ar 1.95767 1.91835 -0.0518226
Ar 5.67813 1.98644 -0.0108696
Ar 1.75783 5.63291 0.0201335
Ar -1.86854 1.94641 -0.00215651
Ar -5.6764 1.99756 -0.117234
Ar -2.02079 5.64031 -0.107777
Ar -1.82685 -1.93352 0.0234581
Ar -5.72102 -1.94975 -0.0573754
Ar -1.79087 -5.69783 0.117605
Ar 1.96115 -1.81273 -0.122232
Ar 5.65937 -1.93416 0.0686975
Ar 1.98743 -5.5829 0.0222259
Ar 0.043177 0.033206 2.5661
Ar 3.73733 0.0478486 2.64872
Ar -3.79405 0.0291791 2.65803
Ar -0.00236661 3.7366 2.75904
Ar 0.0982675 -3.74361 2.62333
Ar 3.68968 3.89923 2.74131
Ar -3.85437 3.65044 2.66676
Ar -3.77328 -3.84229 2.69368
Ar 3.90657 -3.76104 2.83763
Ar -0.03412 0.0593256 -2.58668
Ar 3.85249 0.00236771 -2.57557
Ar -3.77081 -0.0930135 -2.57982
Ar -0.0448627 3.89918 -2.6075
Ar -0.0026345 -3.70458 -2.58345
Ar 3.81824 3.75978 -2.70952
Ar -3.78452 3.76351 -2.9033
Ar -3.8038 -3.94895 -2.68593
Ar 3.7175 -3.79632 -2.81195
Ar 1.86124 1.6946 5.31608
Ar -1.85995 1.75003 5.43387
Ar -1.81402 -1.85343 5.24331
Ar 1.95724 -2.02218 5.39303
Ar 1.84048 1.9589 -5.15452
Ar -1.88195 1.83624 -5.58894
Ar -1.97643 -1.83497 -5.32293
Ar 1.77985 -1.73015 -5.25345
38
Atoms. Timestep: 130000
Ar 1.90019 1.91896 -0.0545104
Ar 5.68247 1.69602 -0.00119229
Ar 1.70016 5.7873 0.0534086
Ar -1.94632 1.80171 0.0619577
Ar -5.61082 1.91943 -0.0551402
Ar -2.13256 5.69002 0.0136311
Ar -1.87149 -1.84651 -0.0774254
Ar -5.59235 -1.93992 -0.0261147
Ar -1.74416 -5.67865 0.121594
Ar 1.91889 -1.74346 -0.00306088
Ar 5.56636 -1.95313 -0.0714529
Ar 1.99456 -5.57209 -0.119731
Ar 0.0762213 0.0896823 2.62012
Ar 3.71976 -0.0961398 2.61158
Ar -3.75486 -0.0249112 2.69809
Ar -0.14986 3.85758 2.65845
Ar 0.0311986 -3.59711 2.56503
Ar 3.77579 3.57444 2.67578
Ar -3.86039 3.71371 2.8334
Ar -3.83048 -3.75136 2.72096
Ar 3.73752 -3.74488 2.61969
Ar 0.0315363 0.0396023 -2.61581
Ar 3.7799 0.0789586 -2.70653
Ar -3.7214 -0.0334119 -2.68933
Ar -0.045804 3.87753 -2.68435
Ar 0.121063 -3.78307 -2.65233
Ar 3.74997 4.01477 -2.56284
Ar -3.67992 3.70746 -2.77365
Ar -3.8218 -3.85287 -2.74672
Ar 3.91316 -3.77438 -2.74531
Ar 1.90992 1.7945 5.27053
Ar -1.8636 1.84173 5.44923
Ar -1.85516 -1.86907 5.4565
Ar 1.87125 -1.97132 5.34275
Ar 1.85219 1.89561 -5.26646
Ar -1.92805 1.76195 -5.38872
Ar -1.81523 -1.98578 -5.24135
Ar 1.89414 -1.84188 -5.29067
38
Atoms. Timestep: 140000
Ar 1.94615 1.91429 0.0819688
Ar 5.66994 1.98419 0.0776678
Ar 1.79435 5.69552 -0.198184
Ar -1.86873 1.90421 -0.0399755
Ar -5.67938 1.89637 0.00608763
Ar -1.89876 5.65104 -0.124968
Ar -1.8631 -1.81441 0.089729
Ar -5.73505 -1.91565 -0.0222387
Ar -1.64304 -5.62239 -0.145338
Ar 1.83785 -1.79094 0.033039
Ar 5.64412 -1.95826 0.0665428
Ar 2.12164 -5.65973 0.0483701
Ar 0.032127 -0.083225 2.72006
Ar 3.80673 0.0719827 2.7142
Ar -3.71096 -0.111581 2.71575
Ar -0.037816 3.70211 2.69228
Ar 0.109213 -3.81935 2.69172
Ar 3.67649 3.94723 2.56392
Ar -3.73076 3.62966 2.64637
Ar -3.6833 -3.94762 2.50562
Ar 3.9115 -3.83682 2.69883
Ar -0.0365111 0.0942035 -2.54739
Ar 3.77713 0.0304412 -2.58779
Ar -3.89677 0.080337 -2.66917
Ar -0.108878 3.89638 -2.82398
Ar 0.02564 -3.67409 -2.55895
Ar 3.78505 3.7212 -2.65059
Ar -3.8626 3.88593 -2.75479
Ar -3.84212 -3.78068 -2.78199
Ar 3.73019 -3.81939 -2.74533
Ar 1.86381 1.88095 5.29874
Ar -1.85674 1.79678 5.52981
Ar -1.93179 -2.1156 5.30143
Ar 1.83753 -1.81726 5.45083
Ar 1.89506 1.74163 -5.23014
Ar -1.9757 1.97544 -5.43618
Ar -1.94139 -1.7859 -5.33695
Ar 1.84087 -1.94598 -5.27905
38
Atoms. Timestep: 150000
Ar 1.8441 1.90228 -0.0163641
Ar 5.72073 1.89926 0.0223914
Ar 1.88007 5.72647 0.0411207
Ar -1.82567 1.71947 -0.000180392
Ar -5.65949 1.91221 -0.129931
Ar -1.97502 5.61666 -0.0861325
Ar -1.91527 -1.94481 0.0279078
Ar -5.66787 -1.86491 0.154261
Ar -1.81564 -5.71252 -0.0487201
Ar 1.88853 -1.82327 -0.0238495
Ar 5.55661 -1.86304 -0.0340262
Ar 1.9796 -5.6142 -0.114606
Ar -0.10314 -0.140395 2.68172
Ar 3.57889 -0.0290786 2.65915
Ar -3.89652 0.0372376 2.77226
Ar 0.00869566 3.81282 2.60165
Ar 0.0213705 -3.79551 2.55188
Ar 3.79771 3.84203 2.68968
Ar -3.78948 3.84299 2.64009
Ar -3.67272 -3.84798 2.71481
Ar 3.81804 -3.82021 2.62709
Ar -0.00951852 0.0260888 -2.66102
Ar 3.7834 0.196213 -2.65439
Ar -3.71445 -0.163496 -2.65784
Ar 0.00447131 3.79883 -2.61579
Ar -0.0548276 -3.72491 -2.71116
Ar 3.81109 3.9157 -2.63834
Ar -3.78436 3.62719 -2.74963
Ar -3.76375 -3.80066 -2.72014
Ar 3.87897 -3.7004 -2.67504
Ar 1.85253 1.98143 5.34034
Ar -1.8286 1.79572 5.33784
Ar -1.80952 -1.92664 5.63623
Ar 1.79814 -1.90369 5.32903
Ar 1.8483 1.90885 -5.38491
Ar -1.88505 1.79594 -5.31544
Ar -1.83061 -1.89851 -5.27492
Ar 1.93225 -1.78215 -5.31501
38
Atoms. Timestep: 160000
Ar 1.91209 1.87998 0.0627476
Ar 5.72779 1.88799 0.037484
Ar 1.86238 5.56733 -0.0814908
Ar -1.97954 1.85923 0.063057
Ar -5.78559 1.80801 0.0700037
Ar -1.92044 5.79609 -0.00916015
Ar -1.99536 -1.83853 -0.00625565
Ar -5.69586 -1.87813 -0.165093
Ar -1.87469 -5.85181 -0.0175194
Ar 1.90148 -1.87815 0.0510004
Ar 5.7724 -1.89614 -0.0434473
Ar 1.90459 -5.48556 0.00816524
Ar -0.0276609 -0.0714796 2.61864
Ar 3.84825 0.0244076 2.70124
Ar -3.85902 0.0806063 2.7054
Ar -0.0348249 3.88138 2.72109
Ar -0.0670495 -3.84219 2.63581
Ar 3.73348 3.80186 2.6358
Ar -3.67545 3.88783 2.6532
Ar -3.78978 -3.70391 2.53078
Ar 3.89112 -3.68671 2.71548
Ar -0.00410763 -0.00620822 -2.62244
Ar 3.80015 0.0116625 -2.65807
Ar -3.71776 0.0305855 -2.69419
Ar -0.206357 3.70711 -2.61766
Ar 0.0446189 -3.74601 -2.63595
Ar 3.59618 3.7443 -2.78321
Ar -3.96537 3.817 -2.58048
Ar -3.57277 -3.7527 -2.77645
Ar 4.03258 -3.88085 -2.73614
Ar 2.08597 1.97502 5.38442
Ar -1.67285 1.74261 5.36072
Ar -1.88334 -2.10622 5.32018
Ar 1.70983 -1.81916 5.33417
Ar 1.62658 1.7107 -5.27116
Ar -2.15167 2.01672 -5.4055
Ar -1.69268 -1.76446 -5.34574
Ar 2.12466 -2.02122 -5.15943
38
Atoms. Timestep: 170000
Ar 1.79996 1.88061 0.0204226
Ar 5.5459 1.93182 0.0168079
Ar 1.86214 5.71923 0.10497
Ar -1.91293 1.85312 -0.00194539
Ar -5.67913 1.89401 -0.0852336
Ar -1.92894 5.73785 -0.0230374
Ar -1.78822 -1.84052 0.0874323
Ar -5.62512 -2.00445 0.0328612
Ar -1.80475 -5.69887 -0.0165297
Ar 1.86854 -1.92103 -0.0248143
Ar 5.70134 -1.94101 -0.123973
Ar 1.90923 -5.66465 -0.00473819
Ar 0.00868604 -0.0322181 2.70515
Ar 3.75195 0.0791209 2.64931
Ar -3.74635 0.157409 2.68041
Ar -0.0760843 3.80044 2.67403
Ar 0.0329051 -3.81129 2.71203
Ar 3.64593 3.80066 2.69549
Ar -3.80612 3.7711 2.66922
Ar -3.69261 -3.80491 2.75166
Ar 3.85506 -3.76608 2.58993
Ar 0.0219559 0.0311903 -2.66841
Ar 3.76238 -0.115937 -2.64047
Ar -3.63246 -0.134178 -2.63368
Ar -0.102582 3.75033 -2.67982
Ar 0.0521578 -3.7196 -2.67286
Ar 3.66452 3.86736 -2.64359
Ar -3.83575 3.84768 -2.72498
Ar -3.78628 -3.91152 -2.6174
Ar 3.73986 -3.94068 -2.76154
Ar 1.85107 1.88983 5.37177
Ar -1.91584 1.91352 5.39743
Ar -1.78513 -1.83793 5.41175
Ar 1.86821 -1.94958 5.34454
Ar 1.92679 1.96358 -5.44701
Ar -1.87856 1.87466 -5.31921
Ar -1.78726 -1.88556 -5.37859
Ar 1.91752 -1.7825 -5.44739
38
Atoms. Timestep: 180000
Ar 1.85606 1.87847 0.0305734
Ar 5.50682 2.16563 -0.0589156
Ar 2.01543 5.56118 -0.0292927
Ar -1.76807 1.90445 -0.041186
Ar -5.71431 1.7889 -0.0805659
Ar -1.74968 5.57551 0.0925112
Ar -1.86207 -1.91596 -0.145176
Ar -5.64198 -1.94539 0.0584321
Ar -1.80213 -5.57667 -0.066862
Ar 1.7837 -1.85045 0.0665711
Ar 5.66977 -1.72706 0.121972
Ar 1.85134 -5.65314 -0.0845448
Ar -0.035657 -0.0439237 2.65361
Ar 3.82493 0.0125841 2.7051
Ar -3.72021 -0.0218049 2.61225
Ar 0.0112071 3.66508 2.68397
Ar 0.063948 -3.78791 2.68426
Ar 3.61987 3.74379 2.7498
Ar -3.81137 3.69947 2.64664
Ar -3.68968 -3.74063 2.71269
Ar 3.83586 -3.71446 2.69164
Ar -0.0880868 -0.0383077 -2.6595
Ar 3.62971 0.0424891 -2.61211
Ar -3.80635 -0.0701733 -2.69073
Ar 0.0821301 3.78356 -2.61029
Ar 0.0363695 -3.77524 -2.5921
Ar 3.85845 3.75392 -2.9537
Ar -3.75168 3.87414 -2.51239
Ar -3.84151 -3.82557 -2.6384
Ar 3.89825 -3.76713 -2.63321
Ar 1.7674 1.85555 5.40076
Ar -1.88011 1.86864 5.21151
Ar -1.86836 -1.89777 5.36009
Ar 1.96975 -1.8351 5.32241
Ar 1.70935 1.82622 -5.40991
Ar -2.05597 2.02454 -5.25934
Ar -1.848 -1.90254 -5.35045
Ar 1.94686 -1.9339 -5.37611
38
Atoms. Timestep: 190000
Ar 1.85749 1.8979 -0.123386
Ar 5.80904 1.98362 0.037584
Ar 1.89129 5.62741 0.0787303
Ar -1.88773 1.79375 0.0799743
Ar -5.80841 1.80308 0.0542858
Ar -1.92241 5.64873 -0.00448296
Ar -1.7903 -1.87628 -0.0660413
Ar -5.42065 -2.05294 -0.0241361
Ar -2.05199 -5.64753 0.0300821
Ar 1.80311 -1.89374 -0.0599151
Ar 5.6587 -1.83478 -0.00176138
Ar 1.72807 -5.85114 -0.0386521
Ar -0.0500712 0.0480452 2.61222
Ar 3.74305 0.0235656 2.58453
Ar -3.92643 0.0246739 2.67553
Ar 0.0386052 3.69274 2.65457
Ar 0.0163711 -3.71696 2.54686
Ar 3.7331 3.80228 2.65223
Ar -3.84114 3.66504 2.62387
Ar -3.80685 -3.71394 2.82143
Ar 3.78 -3.69425 2.53087
Ar 0.0525184 0.132599 -2.65636
Ar 3.82875 -0.0990981 -2.66098
Ar -3.65056 -0.0172897 -2.73799
Ar -0.176082 3.91895 -2.62511
Ar 0.102362 -3.79893 -2.61686
Ar 3.8475 3.78048 -2.56802
Ar -4.04485 3.61493 -2.5628
Ar -3.84774 -3.76914 -2.7643
Ar 3.84809 -3.86017 -2.58741
Ar 1.816 1.90977 5.27981
Ar -1.88392 1.8643 5.39427
Ar -1.60358 -1.81192 5.3446
Ar 2.05044 -1.79564 5.27311
Ar 1.90616 2.01002 -5.36851
Ar -1.88582 1.96938 -5.3325
Ar -1.78935 -1.99011 -5.24776
Ar 1.87925 -1.78639 -5.22759
38
Atoms. Timestep: 200000
Ar 1.92567 1.93405 0.0801626
Ar 5.68719 2.13414 -0.295888
Ar 2.00326 5.65683 -0.0201812
Ar -1.9162 1.81989 -0.000981366
Ar -5.72932 1.72874 0.0493942
Ar -1.95836 5.77 0.0127129
Ar -1.91236 -1.95148 0.0265387
Ar -5.6153 -2.07521 -0.128139
Ar -1.91975 -5.72822 0.0658769
Ar 1.8945 -1.77323 0.0825848
Ar 5.61354 -1.70721 0.00624462
Ar 1.85316 -5.81189 -0.109928
Ar -0.0379245 0.007431 2.66497
Ar 3.84125 0.0566226 2.80146
Ar -3.74965 -0.0183454 2.62877
Ar 0.0934329 3.91952 2.6964
Ar 0.079248 -3.80293 2.58856
Ar 4.00534 3.68923 2.73209
Ar -3.73738 3.76298 2.6463
Ar -3.75769 -3.77623 2.64156
Ar 3.78753 -3.66796 2.70688
Ar -0.0458595 0.0561307 -2.73392
Ar 3.68701 -0.117893 -2.65376
Ar -3.8663 -0.150754 -2.69425
Ar -0.0428549 3.90095 -2.50031
Ar -0.0245207 -3.7881 -2.62111
Ar 3.70844 3.85084 -2.88108
Ar -3.86546 3.77038 -2.41295
Ar -3.66624 -3.94029 -2.73618
Ar 3.94031 -3.86512 -2.60824
Ar 1.8366 1.95772 5.30887
Ar -2.00605 1.78902 5.27779
Ar -1.89391 -1.89464 5.21572
Ar 1.81628 -1.92852 5.36238
Ar 1.83806 1.88101 -5.37306
Ar -1.92735 2.03025 -5.1659
Ar -1.93566 -1.74471 -5.30917
Ar 1.99931 -1.97199 -5.35022
38
Atoms. Timestep: 210000
Ar 1.89405 1.9427 0.0129031
Ar 5.70978 2.05765 0.0805057
Ar 1.68709 5.66615 -0.0355543
Ar -1.81575 1.88929 0.00539831
Ar -5.66121 1.75012 0.0562257
Ar -2.07408 5.60561 -0.033962
Ar -1.82349 -1.85452 -0.0656596
Ar -5.56918 -1.99449 0.040664
Ar -2.07322 -5.69979 -0.0201743
Ar 1.87873 -1.83678 -0.0626692
Ar 5.68847 -1.83232 0.031866
Ar 1.72534 -5.86282 -0.0781139
Ar -0.00166762 0.0359073 2.67423
Ar 3.81807 -0.138087 2.6018
Ar -3.76406 -0.000924482 2.64066
Ar -0.0636147 3.87279 2.7581
Ar 0.184702 -3.73312 2.70897
Ar 3.7323 3.85958 2.67528
Ar -3.76255 3.63776 2.68045
Ar -3.56804 -3.65755 2.63472
Ar 3.78417 -3.87938 2.5429
Ar 0.0289654 0.0895678 -2.63535
Ar 3.84225 0.112314 -2.59291
Ar -3.78261 -0.0486344 -2.61761
Ar -0.104128 3.81526 -2.63141
Ar -0.00294124 -3.67499 -2.61983
Ar 3.74315 3.88253 -2.64111
Ar -3.93828 3.75669 -2.74121
Ar -3.8131 -3.81192 -2.68748
Ar 3.70186 -3.85563 -2.58222
Ar 1.81616 1.79443 5.26567
Ar -1.9651 1.89677 5.36073
Ar -1.66443 -1.90062 5.3509
Ar 2.0585 -1.93276 5.2876
Ar 1.95756 1.94736 -5.4361
Ar -1.73944 1.79352 -5.43821
Ar -1.90712 -1.90564 -5.24162
Ar 1.84488 -1.78504 -5.24839
38
Atoms. Timestep: 220000
Ar 1.86128 1.90823 -0.121581
Ar 5.62915 1.93719 -0.0299829
Ar 2.00645 5.59728 0.0165628
Ar -1.86838 1.82662 0.0716501
Ar -5.62923 1.83173 0.0351845
Ar -1.82892 5.68567 0.10524
Ar -1.81888 -1.89572 -0.0442331
Ar -5.52517 -2.00115 -0.078521
Ar -1.70858 -5.742 0.00468969
Ar 1.86855 -1.7937 0.061439
Ar 5.60617 -1.90002 0.0080204
Ar 1.96744 -5.5678 0.00685236
Ar 0.00994344 0.0379864 2.74651
Ar 3.74125 0.100181 2.67441
Ar -3.75268 -0.0713842 2.65426
Ar -0.045855 3.78524 2.68948
Ar 0.0258083 -3.70289 2.6723
Ar 3.81633 3.72137 2.67862
Ar -3.76264 3.70448 2.59064
Ar -3.66839 -3.89979 2.59567
Ar 3.77237 -3.64077 2.72753
Ar -0.032701 0.0811337 -2.70508
Ar 3.7031 -0.0318919 -2.74385
Ar -3.75174 -0.0267248 -2.66361
Ar -0.0696688 3.81085 -2.66475
Ar 0.0847077 -3.70206 -2.6638
Ar 3.78475 3.82109 -2.76869
Ar -3.81214 3.82748 -2.51912
Ar -3.71783 -3.93923 -2.65352
Ar 3.78379 -3.73079 -2.7484
Ar 1.88681 1.95392 5.36655
Ar -1.98798 1.79711 5.46941
Ar -1.9587 -1.969 5.35234
Ar 1.788 -1.88821 5.51328
Ar 1.80426 1.92869 -5.43778
Ar -2.07853 1.92921 -5.37018
Ar -1.97653 -1.82296 -5.35653
Ar 1.85639 -1.95836 -5.471
38
Atoms. Timestep: 230000
Ar 1.90502 1.90971 0.0513895
Ar 5.72478 1.93677 -0.0634424
Ar 1.73328 5.74724 -0.0307382
Ar -1.86583 1.8093 -0.0058137
Ar -5.53431 1.88045 -0.0569838
Ar -2.0425 5.56149 -0.0243775
Ar -1.85856 -1.88677 0.0690583
Ar -5.52231 -1.94291 0.00837625
Ar -1.91762 -5.7224 0.0282445
Ar 1.80328 -1.80018 -0.0756817
Ar 5.64973 -1.76394 -0.128314
Ar 1.85613 -5.67864 0.0223624
Ar -0.00541182 -0.04326 2.71491
Ar 3.77065 0.0460354 2.71235
Ar -3.73688 -0.122858 2.7273
Ar -0.00765008 3.85628 2.75557
Ar -0.033816 -3.77039 2.65624
Ar 3.82594 3.88775 2.61988
Ar -3.82009 3.68214 2.73753
Ar -3.78095 -3.93362 2.71955
Ar 3.73227 -3.70219 2.43835
Ar 0.0655282 0.014581 -2.72134
Ar 3.77557 0.0368225 -2.70033
Ar -3.6509 -0.0380708 -2.67607
Ar -0.028692 3.71144 -2.61169
Ar -0.0753246 -3.68112 -2.58563
Ar 3.84381 3.87203 -2.56711
Ar -3.75244 3.70215 -2.68219
Ar -3.79461 -3.78603 -2.76501
Ar 3.66245 -3.76605 -2.60457
Ar 1.89618 1.97717 5.41317
Ar -1.84341 1.82248 5.29419
Ar -1.88283 -1.98041 5.48378
Ar 1.97568 -1.84607 5.31001
Ar 1.97976 1.98057 -5.2631
Ar -1.92644 1.81873 -5.34978
Ar -1.94645 -1.96516 -5.38856
Ar 1.82896 -1.82207 -5.46153
38
Atoms. Timestep: 240000
Ar 1.91945 1.81009 0.022645
Ar 5.76624 1.81436 -0.00234357
Ar 1.76807 5.77415 0.0268198
Ar -1.86122 1.92798 0.0501126
Ar -5.82694 1.92859 0.0857736
Ar -1.97762 5.68717 0.00419439
Ar -1.842 -1.86738 0.0199899
Ar -5.75318 -1.91069 0.0300661
Ar -1.77688 -5.70723 -0.0487851
Ar 1.8786 -1.87571 0.0193442
Ar 5.62155 -1.97661 -0.0127275
Ar 2.1383 -5.60341 -0.0248875
Ar 0.0365275 -0.0453795 2.63855
Ar 3.79897 -0.0771017 2.64338
Ar -3.74679 0.0362314 2.57689
Ar -0.10381 3.82939 2.67236
Ar 0.130612 -3.81832 2.64092
Ar 3.85557 3.70038 2.53902
Ar -3.81533 3.81529 2.68922
Ar -3.6795 -3.89559 2.60662
Ar 3.8991 -3.76147 2.7387
Ar -0.0460666 0.00443955 -2.60526
Ar 3.72178 -0.0109362 -2.69254
Ar -3.85136 0.0214033 -2.52999
Ar -0.0519691 3.79627 -2.65851
Ar 0.143452 -3.72747 -2.58176
Ar 3.71535 3.85048 -2.63844
Ar -3.87005 3.82409 -2.57489
Ar -3.75916 -3.76382 -2.65246
Ar 3.94172 -3.81625 -2.77886
Ar 1.87642 1.93775 5.15922
Ar -1.89812 1.8659 5.30312
Ar -1.95306 -1.94614 5.29241
Ar 1.75017 -1.88456 5.37337
Ar 1.83316 1.9176 -5.35237
Ar -2.09853 1.86423 -5.31209
Ar -1.83667 -1.88268 -5.26088
Ar 1.95522 -1.83405 -5.40594
38
Atoms. Timestep: 250000
Ar 1.82742 1.85245 0.0494664
Ar 5.60022 1.80894 -0.0169774
Ar 1.74474 5.63333 0.0309155
Ar -1.89814 1.89742 -0.0214335
Ar -5.66084 2.00456 -0.0430002
Ar -2.13165 5.56739 -0.00739679
Ar -1.85472 -1.85487 0.0740548
Ar -5.58003 -1.8549 0.105532
Ar -1.8203 -5.69729 0.045611
Ar 1.96638 -1.88751 -0.0224394
Ar 5.64875 -1.98121 0.0774016
Ar 1.99375 -5.65047 -0.0660305
Ar -0.0271638 -0.0419976 2.6054
Ar 3.85298 -0.0964323 2.56618
Ar -3.74025 0.0601327 2.75263
Ar -0.0949804 3.76744 2.68552
Ar 0.0611798 -3.88583 2.61915
Ar 3.8353 3.75296 2.598
Ar -3.89347 3.80968 2.71464
Ar -3.79241 -3.75252 2.74684
Ar 3.92461 -3.8482 2.76477
Ar 0.0242608 0.094931 -2.67515
Ar 3.72631 -0.0277797 -2.64103
Ar -3.78461 -0.0525803 -2.69861
Ar -0.170598 4.0649 -2.68101
Ar 0.160708 -3.76058 -2.67494
Ar 3.6874 3.75612 -2.64754
Ar -3.92755 3.69109 -2.78909
Ar -3.70061 -3.79799 -2.49498
Ar 3.98771 -3.70738 -2.72878
Ar 1.90751 1.88185 5.12862
Ar -1.80476 1.91312 5.36795
Ar -1.8411 -1.91753 5.29987
Ar 1.85007 -1.93348 5.26345
Ar 1.81006 2.01471 -5.19045
Ar -1.88274 1.87767 -5.25446
Ar -1.90073 -1.88919 -5.44878
Ar 1.89929 -1.80996 -5.39389
38
Atoms. Timestep: 260000
Ar 1.75681 1.90415 0.0634835
Ar 5.62688 1.8809 0.0162437
Ar 1.87774 5.71113 0.094594
Ar -1.90149 1.80234 0.0199483
Ar -5.65195 1.98854 -0.12545
Ar -1.85916 5.57559 -0.156296
Ar -1.83239 -1.86346 -0.0213629
Ar -5.66412 -1.84232 -0.0290179
Ar -1.7145 -5.72727 0.0548412
Ar 1.86042 -1.81884 -0.029247
Ar 5.72625 -1.98845 -0.172775
Ar 2.17531 -5.58383 -0.0262911
Ar -0.090271 0.0895967 2.62229
Ar 3.73167 0.0716594 2.60095
Ar -3.7715 -0.0496089 2.603
Ar -0.0379116 3.81366 2.83741