38
Atoms. Timestep: 0
Ar 1.668 1.873 0
Ar 5.651 1.903 0.003
Ar 1.878 5.656 -0.01
Ar -1.867 1.863 -0.007
Ar -5.65 1.873 -0.014
Ar -1.898 5.645 -0.014
Ar -1.857 -1.873 0
Ar -5.64 -1.903 -0.003
Ar -1.867 -5.656 0.01
Ar 1.878 -1.863 0.007
Ar 5.661 -1.873 0.014
Ar 1.909 -5.645 0.014
Ar 0.002 0.007 2.642
Ar 3.751 0.017 2.659
Ar -3.75 -0.003 2.646
Ar -0.008 3.756 2.646
Ar 0.012 -3.745 2.659
Ar 3.761 3.786 2.656
Ar -3.778 3.766 2.646
Ar -3.757 -3.773 2.663
Ar 3.781 -3.752 2.673
Ar 0.009 -0.007 -2.642
Ar 3.761 0.003 -2.646
Ar -3.74 -0.017 -2.659
Ar -0.002 3.746 -2.659
Ar 0.019 -3.756 -2.646
Ar 3.768 3.773 -2.663
Ar -3.771 3.752 -2.673
Ar -3.75 -3.786 -2.656
Ar 3.788 -3.766 -2.646
Ar 1.871 1.897 5.329
Ar -1.888 1.886 5.325
Ar -1.878 -1.873 5.332
Ar 1.881 -1.863 5.339
Ar 1.888 1.873 -5.332
Ar -1.871 1.863 -5.339
Ar -1.861 -1.897 -5.329
Ar 1.898 -1.886 -5.325
38
Atoms. Timestep: 10000
Ar 1.89308 2.06803 0.184287
Ar 5.40212 2.9382 0.044286
Ar 2.05096 5.4844 -0.198858
Ar -1.91486 1.85162 -0.107913
Ar -5.8795 1.85337 -0.0134676
Ar -1.72153 5.50996 -0.399971
Ar -1.78384 -1.57014 0.46615
Ar -5.73239 -1.86042 0.275697
Ar -4.10394 -5.49704 0.288885
Ar 2.13367 -1.73864 0.110598
Ar 6.21162 -0.681654 0.23986
Ar 2.26584 -5.50716 -1.33792
Ar 0.0298487 0.521847 2.70802
Ar 4.17569 -0.211237 3.12385
Ar -3.88325 0.305175 2.86253
Ar -0.180572 3.96895 2.55524
Ar -0.164671 -4.49621 1.60419
Ar 3.59785 3.62944 2.92221
Ar -4.04155 3.9183 2.13167
Ar -4.21108 -3.39629 3.27065
Ar 4.6243 -4.0965 1.61787
Ar 0.10738 -0.10715 -2.59254
Ar 3.99777 0.688804 -2.49565
Ar -3.51029 -0.413295 -2.39993
Ar 0.389281 3.59907 -2.99794
Ar -1.22189 -4.00053 -2.21212
Ar 3.95584 4.51634 -3.11065
Ar -3.40519 3.39045 -2.8775
Ar -5.31448 -3.88492 -2.88263
Ar 5.12548 -3.22612 -1.90885
Ar 1.70577 0.652401 6.18106
Ar -1.69941 2.09803 5.80087
Ar -1.58806 -1.5404 5.27097
Ar 1.75039 -2.85417 4.51384
Ar 2.24242 1.33939 -5.53337
Ar -1.84162 1.63277 -5.76238
Ar -1.5597 -2.21514 -5.09923
Ar 2.10049 -2.66853 -4.24181
38
Atoms. Timestep: 20000
Ar 1.7472 1.46976 -0.65096
Ar 5.59175 1.21235 -0.801431
Ar 3.68226 4.56426 -1.19048
Ar -1.79341 1.67527 -0.435689
Ar -4.79359 0.471937 -1.66208
Ar -5.02371 3.70755 1.41441
Ar -2.28883 -1.87017 0.318758
Ar -5.55156 -2.91286 1.3111
Ar -3.00371 -5.7474 0.436706
Ar 1.77989 -2.08862 0.133118
Ar 7.32106 -1.44941 -3.1616
Ar 4.03764 -5.37877 1.04037
Ar 0.593343 0.177916 2.46752
Ar 4.22209 0.763963 2.52167
Ar -4.12905 0.614482 2.66579
Ar -1.49647 2.95623 3.20984
Ar -1.19827 -4.93628 -2.54765
Ar 1.96942 3.97367 2.29251
Ar -4.35074 3.98978 5.44622
Ar -3.11497 -3.18746 3.75655
Ar 2.93582 -2.56445 3.6878
Ar -0.289621 -1.05512 -2.71041
Ar 3.53632 -1.05106 -3.07328
Ar -2.23306 1.59726 -4.68749
Ar -0.511356 5.18793 0.232789
Ar -2.96545 -2.25072 -5.29544
Ar 4.74093 2.03189 -4.50933
Ar -3.50918 4.36949 -2.24736
Ar -4.63458 -3.24199 -2.17171
Ar 5.79977 -2.32944 0.350712
Ar 1.38466 1.98947 5.67754
Ar -0.974439 5.22257 6.41768
Ar -2.1706 1.29552 6.57083
Ar -0.0332455 -4.30632 2.35235
Ar 1.40838 0.706827 -5.49061
Ar 0.189789 3.57989 -3.29742
Ar 0.626053 -2.81796 -6.06923
Ar 2.50149 -4.369 -2.30209
38
Atoms. Timestep: 30000
Ar 1.28706 0.80049 -1.76262
Ar 5.36014 0.724331 -1.32895
Ar 2.57187 4.38755 -1.90548
Ar -0.710304 3.333 -0.0926934
Ar -2.40887 0.748731 -1.57083
Ar -4.50096 4.90111 4.13548
Ar -0.581763 -2.08824 0.100648
Ar -4.17378 -2.58629 -0.249973
Ar -2.003 -5.13941 0.920765
Ar 1.14433 -4.75615 -1.73698
Ar 5.7504 -0.267392 -5.93363
Ar -0.709741 -6.71637 4.75036
Ar -0.384249 0.561621 2.54727
Ar 2.95184 2.33502 1.03746
Ar -3.88958 2.07934 1.40389
Ar -0.570542 4.10024 3.52384
Ar -2.30047 -4.76381 -2.80137
Ar 1.89369 6.14662 1.65382
Ar -2.45857 1.78574 5.40447
Ar -3.19857 -1.34861 3.41453
Ar 3.13113 -0.996112 3.99542
Ar -0.72664 -1.44882 -3.68084
Ar 3.25781 -1.99323 -3.22479
Ar -2.56968 1.47665 -5.64549
Ar -2.42434 6.81454 1.04713
Ar -2.18079 -2.27913 -6.79676
Ar 3.7111 2.58146 -4.54886
Ar -3.61668 4.35597 -2.18673
Ar -4.66945 -1.86547 -4.00245
Ar 2.97573 -1.43258 0.52938
Ar 2.71002 2.55363 4.942
Ar -0.119144 2.97135 7.76704
Ar -0.16337 -1.06162 5.86874
Ar 0.557716 -3.34929 3.22248
Ar 1.23528 0.37796 -6.38921
Ar -0.133115 3.66476 -4.25872
Ar 0.626508 -4.17639 -5.74112
Ar 5.3678 -3.61491 -0.973163
38
Atoms. Timestep: 40000
Ar 1.3129 -1.14893 -2.56854
Ar 3.82392 1.29281 -1.97355
Ar 3.38942 4.99796 -3.00289
Ar 0.405898 2.73303 -1.43261
Ar -2.19908 0.293822 -2.91919
Ar -4.79038 1.85408 6.2845
Ar -1.64565 -1.26941 0.576871
Ar -6.11152 1.77011 -2.85397
Ar -2.79584 -4.57524 -0.921235
Ar 0.594555 -4.16577 -0.130494
Ar 6.98727 -1.20864 -3.19165
Ar 4.42972 -2.86745 0.186342
Ar -1.0128 2.09205 2.65867
Ar 2.05626 3.95456 2.18235
Ar -3.39089 2.04376 -0.11792
Ar -1.27865 5.3074 1.01406
Ar -5.44605 -1.04539 -0.512183
Ar 1.42263 7.25523 -0.441453
Ar -1.38376 -0.209422 5.62487
Ar -4.12868 -0.139212 3.1093
Ar 4.60012 0.580863 2.7756
Ar -0.223227 -4.31158 -3.86562
Ar 3.52273 -3.88098 -3.44308
Ar 0.218137 5.20962 -7.36403
Ar -4.3451 3.9471 3.02495
Ar -3.8037 -2.79147 -3.78302
Ar 3.54803 -0.846703 -5.32308
Ar -1.71298 4.69029 -3.66969
Ar -3.54651 2.22859 -5.88112
Ar 1.7037 0.253213 0.91513
Ar -0.738956 4.56148 4.89311
Ar 1.65382 1.63428 4.95871
Ar 1.54725 -2.73415 3.19068
Ar -1.82299 -3.68562 3.00522
Ar -0.865006 -0.749783 -5.93713
Ar 1.36593 1.84634 -4.69934
Ar 1.6368 -3.19989 -6.92359
Ar 7.13937 1.47899 -0.084305
38
Atoms. Timestep: 50000
Ar 2.17793 -0.27594 -3.83601
Ar 5.13246 2.15247 -5.58723
Ar 3.05756 4.4276 -3.25582
Ar 0.979289 2.17007 -1.17291
Ar -1.63227 0.77312 -3.66192
Ar -2.17994 1.66808 5.8375
Ar -1.19787 -0.647546 -0.348016
Ar -5.08263 3.04444 -3.88757
Ar -4.46558 -0.859708 -1.82552
Ar 2.77957 -5.69633 1.1625
Ar 4.91799 0.592491 -1.99796
Ar 5.12801 -2.65128 0.827512
Ar -0.879913 1.85441 2.19291
Ar 2.31525 3.4885 2.29819
Ar -2.96496 2.61019 -0.501414
Ar -1.10919 5.81373 0.119564
Ar -6.36487 3.3753 -0.248146
Ar -4.08744 6.07919 -2.26079
Ar -0.975594 -1.50627 3.44694
Ar -4.43808 0.153137 2.26822
Ar 5.19849 0.877322 3.45291
Ar -1.50148 -2.95745 -3.72116
Ar 1.53684 -2.79126 -1.04369
Ar -0.0814261 5.81407 -6.68783
Ar -4.24952 3.70856 3.06679
Ar -4.52002 -0.991446 -5.66939
Ar 4.32336 -1.62294 -7.20566
Ar -0.974802 4.27892 -3.48039
Ar -2.68372 1.37658 -7.79377
Ar 2.44902 -0.149709 1.15537
Ar -0.603 5.13402 4.21142
Ar 1.55133 0.948967 4.71119
Ar 2.80563 -2.6218 3.68227
Ar -2.31143 -4.33098 0.105364
Ar -0.0660339 -1.06239 -6.47376
Ar 1.02513 2.48134 -5.91296
Ar 2.13495 -3.77964 -5.25626
Ar 5.0462 3.71196 -0.184204
38
Atoms. Timestep: 60000
Ar 2.12614 -1.15607 -4.94585
Ar 5.48155 -1.29707 -6.28609
Ar 4.53848 2.72144 -4.64473
Ar 1.73378 0.95172 -0.197523
Ar -0.804973 0.0821945 -6.73175
Ar -1.7456 2.33629 6.31742
Ar -0.779172 -1.01958 -1.87266
Ar -6.56706 2.71132 -4.01853
Ar -2.81346 1.89898 -4.32401
Ar 4.07998 -1.63976 0.780121
Ar 4.41135 3.00554 -0.69328
Ar 4.82225 -0.154765 -2.42864
Ar -0.450896 1.52308 2.83021
Ar 1.2549 4.55322 0.910212
Ar -1.58369 2.47998 -0.931135
Ar -2.21222 6.30581 0.564043
Ar -5.33305 1.04965 -0.951592
Ar -5.01865 5.01062 -1.61824
Ar -2.21431 -1.34465 4.557
Ar -2.85515 -0.561822 1.08175
Ar 4.48891 1.67397 2.74738
Ar -4.32406 -1.22384 -3.97299
Ar 2.60836 -3.48848 -1.90391
Ar 2.53792 5.59705 -6.57015
Ar -3.91847 2.73042 2.07028
Ar -4.25956 2.28658 -7.71947
Ar 2.60088 0.985626 -7.92489
Ar 0.869756 2.11252 -3.89495
Ar -1.66358 5.58615 -3.15334
Ar 0.70833 -2.42685 1.85108
Ar -1.41654 4.88642 3.73691
Ar 2.15223 4.08873 5.09093
Ar 2.08325 -0.552091 4.51855
Ar -0.711779 -4.41145 -0.773816
Ar 1.32557 -2.3343 -8.62446
Ar -0.459716 3.98834 -6.67904
Ar -0.605723 -3.65183 -4.72563
Ar 2.17968 5.40009 -2.68171
38
Atoms. Timestep: 70000
Ar 1.85316 -0.794735 -4.32381
Ar 5.92767 -1.12658 -5.36159
Ar 4.25263 1.80031 -4.35396
Ar 1.2661 1.82126 -1.45772
Ar -1.55796 -0.479788 -6.24007
Ar -0.481698 1.46462 4.87873
Ar -1.48456 -0.481714 -2.70025
Ar -6.00239 4.01848 -1.37826
Ar -4.47561 1.42651 -4.19004
Ar 2.53351 0.898618 2.11087
Ar 4.58802 3.32591 -0.936876
Ar 4.89322 -0.324185 -1.54471
Ar -1.178 0.149823 0.937887
Ar 1.50417 5.24378 0.14723
Ar -1.92612 3.47581 -1.65231
Ar -1.54116 7.53042 1.10486
Ar -4.9288 0.171451 -0.377926
Ar -3.88712 7.10004 -1.43458
Ar -2.34989 -1.92569 3.59229
Ar -3.16362 -2.95418 -0.0678146
Ar 6.23738 3.84988 2.44473
Ar -3.88634 -2.63164 -4.31555
Ar 3.60505 -4.1643 -4.99749
Ar 4.64807 3.91534 -7.74849
Ar -4.16431 1.89945 2.452
Ar -3.20179 5.3322 -4.55699
Ar 1.98174 1.35485 -7.4321
Ar -0.199512 2.3936 -4.63785
Ar -0.54035 7.20348 -3.01654
Ar 1.62617 -1.76999 -0.80732
Ar -4.50247 5.74987 2.20489
Ar -1.07549 3.93459 2.10536
Ar 2.49337 4.4769 3.71938
Ar -0.0435206 -3.84536 -3.59962
Ar 2.33092 -2.59718 -7.92649
Ar 0.250141 5.08701 -6.94335
Ar -1.36308 -4.23058 -6.82346
Ar 2.29519 4.78425 -3.6449
38
Atoms. Timestep: 80000
Ar 1.89755 0.388623 -4.43779
Ar 4.93772 -1.24667 -3.82377
Ar 4.68515 1.69663 -6.59158
Ar 1.58043 2.36124 -0.932286
Ar -1.43721 0.166859 -6.11412
Ar -1.61519 0.608983 4.9206
Ar -1.20798 0.07006 -2.49124
Ar -5.754 4.00017 -0.763835
Ar -4.11235 2.04851 -4.18363
Ar 2.35061 1.42678 3.1463
Ar 4.01226 5.70316 -1.72144
Ar 5.06241 2.62428 -2.93917
Ar -0.651252 0.190508 1.2905
Ar 0.430145 7.57534 0.79708
Ar -1.89601 3.39203 -0.425881
Ar -3.4311 5.96776 1.32484
Ar -4.46384 -0.0153487 -0.887366
Ar -3.31934 5.87407 -3.84422
Ar -3.72144 -1.69557 2.51789
Ar -1.89891 -2.95163 -0.669761
Ar 4.86348 0.457278 0.113417
Ar -3.59482 -2.0116 -3.90632
Ar 2.16131 -5.03933 -6.04005
Ar 4.24245 4.64248 -9.06749
Ar -4.04897 2.27619 2.5315
Ar -2.58611 3.8018 -7.41391
Ar 0.848342 2.65902 -7.83384
Ar -0.648004 3.06644 -4.09116
Ar 0.317469 6.08457 -2.26427
Ar 2.09359 -1.31413 -1.26725
Ar -2.70653 8.44868 -1.18942
Ar -0.676661 4.02132 2.86064
Ar 3.2826 4.45683 1.66413
Ar 0.0459698 -2.88787 -4.331
Ar 3.3622 -1.76536 -7.15658
Ar -0.596035 6.66272 -6.30353
Ar -0.102213 -2.59835 -8.20719
Ar 2.69531 4.54982 -4.89454
38
Atoms. Timestep: 90000
Ar 1.64342 0.361449 -5.55847
Ar 4.61901 -1.00858 -0.186721
Ar 4.0377 2.11083 -7.64379
Ar 2.26531 0.949763 -1.93269
Ar -2.07599 1.29853 -7.15216
Ar 0.922513 0.468325 3.5864
Ar -1.26407 0.981308 -3.5374
Ar -6.10952 2.93168 -0.632998
Ar -4.3645 2.62524 -4.34472
Ar 2.89576 2.53341 1.49101
Ar 5.04638 5.86712 -1.91401
Ar 4.77316 -0.00755643 -4.31472
Ar -0.544278 0.657528 0.341598
Ar -0.783721 7.09112 -0.464226
Ar -2.28653 3.52427 -0.907066
Ar -4.20898 6.16926 1.10961
Ar -3.80666 0.216445 -0.986498
Ar -4.49007 5.95395 -2.9695
Ar -2.40407 -2.21644 1.53766
Ar -1.79099 -2.39404 -2.01232
Ar 5.60652 2.40099 -1.30007
Ar -4.20458 -1.1028 -4.81068
Ar 2.79847 -3.0523 -6.66835
Ar 4.23692 6.38153 -6.85081
Ar -3.98881 1.60906 2.52282
Ar -3.53806 5.75383 -6.81069
Ar 0.692097 3.49522 -7.22143
Ar -0.810714 5.00162 -4.3688
Ar 1.727 7.41277 -3.96089
Ar 1.39128 -2.63422 0.958003
Ar -1.82044 8.27428 -4.27133
Ar -0.472329 4.29934 2.82228
Ar 1.17605 4.31748 -1.40109
Ar -0.76617 -2.67546 -5.85052
Ar 1.82315 -2.45907 -3.00531
Ar 0.706551 6.91791 -7.18811
Ar 0.912122 -0.426458 -9.01965
Ar 2.92086 3.65525 -4.2726
38
Atoms. Timestep: 100000
Ar 1.57798 1.07541 -5.35185
Ar 5.36652 -1.65446 0.334126
Ar 4.58914 1.99928 -7.67521
Ar 2.57973 0.422788 -2.02955
Ar -2.52436 2.35342 -7.5259
Ar -0.0341978 0.937061 3.17183
Ar -1.77282 1.02301 -3.92673
Ar -6.1634 3.93807 -0.571593
Ar -5.14112 2.81955 -4.10229
Ar 3.15606 1.7105 1.57604
Ar 3.69021 5.30695 -0.516238
Ar 5.34481 0.208626 -4.41892
Ar -0.641631 0.919002 -0.331255
Ar -0.484494 7.04924 -1.91145
Ar -2.66252 3.69637 -1.50847
Ar -3.64608 6.87094 0.631189
Ar -4.32495 0.242635 -1.33879
Ar -4.56712 6.49747 -2.89104
Ar -2.32722 -1.63607 1.49806
Ar -1.18185 -2.35283 -2.16041
Ar 5.85411 2.36966 -1.04025
Ar -4.40593 -1.46527 -4.51956
Ar 2.71045 -2.01752 -7.54993
Ar 4.75789 5.7866 -7.73232
Ar -3.21022 2.38298 2.17805
Ar -4.83172 5.89887 -6.44916
Ar 1.45393 4.56666 -6.56236
Ar -1.75903 4.65736 -4.95574
Ar 2.82289 7.07022 -3.73618
Ar 1.35862 -1.72147 0.899585
Ar -2.26923 8.51158 -5.25191
Ar 0.270707 4.63676 1.11162
Ar 0.910588 3.73075 -2.64145
Ar -1.01728 -1.10487 -6.88906
Ar 3.06403 -2.70431 -3.58455
Ar -1.40876 5.85992 -8.54295
Ar 1.16786 1.67774 -8.82644
Ar 4.20494 3.61352 -3.96842
38
Atoms. Timestep: 110000
Ar 1.65298 1.59549 -5.58028
Ar 5.45031 -1.72093 -1.06294
Ar 4.29329 3.04658 -7.81229
Ar 2.82164 0.700949 -2.37489
Ar -3.57539 1.33668 -7.2089
Ar 0.0922605 2.41766 3.36783
Ar -1.67339 1.15918 -3.79912
Ar -6.20281 4.18234 -0.826923
Ar -5.18573 2.54684 -4.19772
Ar 3.2095 0.90769 1.54071
Ar 3.20976 3.94741 -0.343078
Ar 5.41445 0.162603 -5.063
Ar -0.312009 1.65988 -0.142301
Ar -1.09512 7.57745 -3.17657
Ar -2.76859 4.20232 -2.01082
Ar -3.74129 6.84716 0.0756783
Ar -3.86777 0.570053 -1.13542
Ar -4.96483 6.69874 -3.86457
Ar -2.24433 -1.3136 1.74766
Ar -1.06356 -2.01043 -2.22688
Ar 6.62374 1.7249 -1.39701
Ar -4.21 -1.22803 -4.64753
Ar 2.80059 -0.903768 -7.93743
Ar 4.98796 6.69376 -6.25519
Ar -3.23263 3.27736 1.55446
Ar -5.52644 4.89597 -7.74078
Ar 1.32723 5.31641 -6.71321
Ar -2.19003 4.35491 -5.65017
Ar 2.61151 7.30351 -2.85611
Ar 1.90567 -2.10534 -0.206263
Ar 0.774956 9.07247 -5.77522
Ar 0.149619 5.1507 0.683496
Ar 0.64767 4.18521 -3.06043
Ar -0.620928 -1.1628 -6.5379
Ar 2.56089 -2.3379 -4.04555
Ar -1.81161 5.94146 -9.0122
Ar -0.189218 2.26627 -8.64156
Ar 4.4873 3.43398 -3.84795
38
Atoms. Timestep: 120000
Ar 2.09758 2.25605 -5.94118
Ar 4.60937 -0.932563 -1.1306
Ar 3.80099 2.26335 -9.18131
Ar 2.64073 2.27222 -2.31011
Ar -2.99636 1.28054 -7.68867
Ar -0.46989 0.450729 3.10306
Ar -1.06615 1.26416 -4.59909
Ar -5.76004 3.89284 -0.7918
Ar -5.03042 3.08841 -4.65654
Ar 2.90758 2.10926 1.49157
Ar 3.44611 6.33052 -1.0699
Ar 5.27001 0.574406 -4.76656
Ar -0.429387 1.01062 -0.73135
Ar -0.628275 8.26735 -1.9065
Ar -2.38744 3.80738 -2.09155
Ar -3.25226 6.37511 0.647412
Ar -4.20158 0.531083 -1.80933
Ar -4.04102 6.75642 -3.54484
Ar -2.61495 -1.29974 0.810202
Ar -1.70038 -2.21886 -2.7823
Ar 5.72734 3.02801 -1.02946
Ar -4.42284 -1.06472 -5.15222
Ar 2.95529 -1.17629 -7.45798
Ar 5.82418 5.30732 -8.5295
Ar -2.8778 2.7919 1.71918
Ar -4.93868 5.13452 -7.7304
Ar 1.70391 5.86671 -7.13838
Ar -1.76303 4.74578 -5.98004
Ar 2.82065 7.96441 -4.44696
Ar 1.06919 -2.0936 -0.0518507
Ar -0.695774 8.38665 -5.79007
Ar 0.0661491 4.80779 0.476174
Ar 0.812615 5.05635 -3.63013
Ar -0.759039 -1.87111 -6.50154
Ar 1.59605 -0.889421 -3.77555
Ar -1.71374 6.83092 -8.96354
Ar 0.232609 2.59688 -9.04025
Ar 4.75798 4.94518 -4.33058
38
Atoms. Timestep: 130000
Ar 2.06162 3.72072 -6.79067
Ar 3.63341 -0.584047 0.085908
Ar 3.29076 1.39076 -10.1916
Ar 2.65813 2.47948 -2.30304
Ar -0.676366 1.72888 -8.48781
Ar 0.58565 1.61776 2.67606
Ar -0.203734 1.87194 -4.66164
Ar -5.98989 3.15665 0.064144
Ar -3.79625 1.90484 -5.80649
Ar 4.03296 2.94347 1.20285
Ar 3.95824 5.77063 -1.2874
Ar 4.88166 1.14474 -5.06518
Ar -0.591158 0.634579 -1.35106
Ar 0.752151 8.21579 -1.18332
Ar -2.56503 3.62122 -2.63945
Ar -3.48646 7.17979 -1.8242
Ar -4.37845 0.244212 -2.23641
Ar -5.05545 5.17539 -4.99687
Ar -3.64865 -0.731233 1.58696
Ar -2.08901 -3.01516 -2.49112
Ar 6.15439 2.38486 -1.59988
Ar -5.02896 -2.539 -5.00514
Ar 2.18268 -0.742764 -6.95703
Ar 3.91332 5.33093 -9.63336
Ar -2.53758 2.52669 0.842487
Ar -4.55838 4.83131 -8.98277
Ar 1.97704 7.58558 -7.42049
Ar -1.42951 4.86291 -6.15553
Ar 3.41097 8.5904 -3.99898
Ar 0.0779 -2.06919 1.01765
Ar -0.647866 8.7383 -4.89114
Ar 0.696289 4.57086 -0.0371899
Ar 0.923172 5.59623 -3.56569
Ar -1.30356 -1.13344 -6.04476
Ar 1.59643 -1.23908 -3.43681
Ar -2.08069 7.92786 -8.30347
Ar 0.0128173 5.20531 -9.61276
Ar 4.80589 4.90191 -4.61609
38
Atoms. Timestep: 140000
Ar 2.31129 2.58251 -6.4144
Ar 5.33144 -2.32846 -1.30323
Ar 2.57821 2.45228 -10.2845
Ar 3.08497 1.3515 -3.04873
Ar -0.277729 0.469642 -8.3376
Ar 0.330336 1.5323 3.37509
Ar -0.496405 0.860071 -4.18156
Ar -5.10792 4.5034 -0.974495
Ar -3.96535 0.862245 -6.07974
Ar 3.83609 1.14938 0.66192
Ar 3.91508 4.54506 -0.684057
Ar 5.74654 0.926704 -5.59172
Ar 0.163857 1.24323 -0.517436
Ar 0.395865 7.18927 -1.2391
Ar -1.81534 3.92584 -2.30998
Ar -2.78007 6.83474 0.88015
Ar -4.20262 0.643491 -2.29898
Ar -5.15 3.99144 -4.64359
Ar -2.72339 -0.414627 1.28663
Ar -1.81781 -2.78927 -1.70695
Ar 6.34385 1.48491 -1.91691
Ar -3.95941 -2.28376 -4.52662
Ar 2.59453 -0.955732 -5.93696
Ar 3.44536 5.92559 -7.68608
Ar -2.44049 3.08143 1.56191
Ar -3.12059 3.58553 -9.3017
Ar 0.455506 7.14881 -5.85492
Ar -1.02828 3.64134 -6.26374
Ar 3.29541 7.59885 -3.15678
Ar 1.32342 -1.81864 1.55273
Ar -2.70287 7.29006 -3.45801
Ar 0.873939 4.40184 1.08376
Ar 1.38823 4.42906 -3.43197
Ar -0.740517 -2.61277 -6.22171
Ar 1.72531 -1.82814 -2.24811
Ar -3.30053 6.55661 -7.02481
Ar 0.264068 5.44237 -9.19429
Ar 5.37132 4.46414 -4.06353
38
Atoms. Timestep: 150000
Ar 3.25186 1.37731 -6.13979
Ar 6.21114 -1.83757 -1.05885
Ar 1.02167 3.29782 -8.83348
Ar 3.80152 0.436068 -2.30823
Ar 0.150012 -0.173402 -7.36411
Ar 0.0379152 0.874206 4.09359
Ar 0.689951 -0.136559 -3.55134
Ar -5.97964 3.3037 -0.215147
Ar -2.56616 0.426058 -4.93317
Ar 3.31011 0.256773 1.72003
Ar 5.25447 3.12107 -0.105039
Ar 6.15588 -0.614286 -4.95734
Ar 0.201647 0.727499 0.148053
Ar 1.4483 7.94401 -0.492694
Ar -1.94324 2.49898 -2.06028
Ar -1.21806 5.39573 0.275411
Ar -4.40804 0.074132 -0.557609
Ar -5.97551 1.99968 -3.87221
Ar -2.37676 -1.37796 2.50169
Ar -1.5504 -2.1407 -1.54347
Ar 9.07761 2.15113 -2.33941
Ar -4.82861 -2.05999 -3.61837
Ar 3.19743 -2.7016 -5.34861
Ar 3.08171 5.38422 -6.14617
Ar -2.44085 2.24867 2.03294
Ar -2.54188 2.20974 -8.18825
Ar -0.363687 6.43061 -3.47084
Ar 0.200716 3.24428 -5.15585
Ar 3.92912 6.38175 -2.68218
Ar 0.990903 -3.10158 2.29115
Ar -4.05534 5.84829 -2.10732
Ar 1.88402 3.65982 1.85056
Ar 1.68606 3.55618 -2.0601
Ar -0.772513 -3.0631 -4.85345
Ar 2.37792 -2.57619 -1.10146
Ar -3.47025 4.27122 -5.47925
Ar -0.619086 5.99142 -7.2288
Ar 5.80455 3.3301 -3.78122
38
Atoms. Timestep: 160000
Ar 2.69113 0.343297 -4.49219
Ar 7.23654 -2.92388 -1.68445
Ar 1.1749 0.994221 -8.38599
Ar 4.25753 -0.632182 -1.27478
Ar -1.01553 -1.38016 -5.99144
Ar 1.26236 0.827954 5.10526
Ar 0.529219 -0.860395 -1.95315
Ar -6.7867 1.32307 0.780198
Ar -3.15809 -1.78726 -3.2394
Ar 5.85133 -2.32585 2.15315
Ar 5.86765 4.07605 1.03483
Ar 6.29996 -0.81219 -4.66645
Ar -0.0324333 -0.17066 1.70578
Ar -0.0808054 6.95762 1.839
Ar -1.52161 1.78164 -1.19064
Ar 0.466172 3.209 1.81815
Ar -3.48979 -1.11098 0.307443
Ar -3.55024 1.26292 -5.74319
Ar -0.947125 -3.54159 3.49208
Ar -1.9089 -4.10264 -0.697456
Ar 7.48688 0.608508 -0.0038344
Ar -4.16267 -4.81093 2.0089
Ar 3.60768 -3.72881 -2.98826
Ar 3.04145 4.47512 -4.67106
Ar -3.25463 1.36138 2.84794
Ar -1.41147 3.73933 -8.1619
Ar -0.441168 5.28771 -1.71626
Ar -0.0566133 2.49629 -4.65398
Ar 3.24099 6.26546 -1.16693
Ar 2.74411 -2.69729 4.42381
Ar -2.84007 4.5764 0.779966
Ar 3.54183 0.977382 2.17608
Ar 2.21331 2.60473 -1.48473
Ar 0.294112 -4.22096 -3.70912
Ar 2.05993 -3.07792 0.668527
Ar -3.52657 3.99734 -3.41336
Ar -0.230904 6.32791 -5.32296
Ar 5.56215 2.48735 -2.89331
38
Atoms. Timestep: 170000
Ar 3.72503 -2.29297 -2.85675
Ar 5.48956 -5.35358 -2.15414
Ar 1.07242 5.07051 -3.63319
Ar 3.09049 -3.88635 0.515298
Ar -0.704535 -2.77396 -5.74179
Ar -1.51398 1.60616 6.00205
Ar 0.15312 -2.65624 -1.65696
Ar -4.86799 0.216542 0.443598
Ar -3.18266 -2.92258 -0.11787
Ar 6.49715 -4.86273 1.30716
Ar 4.30567 2.37645 1.86586
Ar 6.19057 -1.37186 -0.0464412
Ar 0.243686 -2.54477 2.31207
Ar 0.523961 5.22571 2.89732
Ar -0.996747 0.0483732 0.205412
Ar 1.27585 1.19865 3.28428
Ar -2.72846 -5.18522 3.45504
Ar -3.29381 -0.905213 -3.19994
Ar 0.126762 -2.12173 6.16595
Ar -0.136016 -5.92481 0.392258
Ar 7.44312 2.68751 -0.309074
Ar 4.2822 -1.85547 7.36033
Ar 1.94599 -5.83328 -2.66778
Ar 5.44 5.05003 -2.40016
Ar -2.6815 -0.650173 3.5144
Ar -1.60859 2.06864 -5.545
Ar 1.18752 3.14834 -0.0521286
Ar 0.787908 0.615508 -3.01667
Ar 4.21002 6.55154 1.08602
Ar 2.15037 -4.79355 4.44864
Ar -2.59437 3.15769 1.93321
Ar 3.8122 -1.79689 3.30481
Ar 2.38482 -0.423874 0.18098
Ar -1.76905 -5.7621 -3.17467
Ar 3.60063 -7.37066 1.36255
Ar -2.37481 2.99553 -1.77374
Ar 0.543424 7.36568 -0.322311
Ar 4.25905 1.67417 -2.06668
38
Atoms. Timestep: 180000
Ar 3.93857 -3.18537 -1.95897
Ar 5.88388 -6.6763 -0.981993
Ar 0.467564 3.30574 -1.935
Ar 3.2103 -4.60523 1.43293
Ar 0.264094 -2.91139 -4.01589
Ar -0.185371 0.469695 7.54257
Ar 0.486574 -3.19309 -0.484662
Ar -3.96209 -0.225138 1.31544
Ar -3.34248 -3.94117 0.777975
Ar 6.00024 -6.36313 3.10157
Ar 6.05076 0.254948 3.52417
Ar 6.43911 -2.83455 1.10215
Ar 0.711078 -2.78842 3.30087
Ar 0.226494 3.6863 4.96636
Ar -0.327604 0.263795 -0.0740104
Ar 2.44243 0.215022 4.89552
Ar -1.12062 -5.45725 5.90474
Ar -3.64878 -1.49239 -2.25068
Ar 1.47278 -2.73048 6.87722
Ar -0.26347 -6.02065 1.54879
Ar 5.6915 0.471672 -0.767003
Ar 3.99692 3.71581 4.5926
Ar 2.10022 -6.65311 -1.98702
Ar 2.09214 6.12265 0.770659
Ar -2.85692 -2.27882 4.60147
Ar -1.00259 0.447707 -4.41722
Ar 2.62299 2.28278 1.69446
Ar 2.43046 0.271442 -2.5173
Ar 5.88326 3.91183 1.59304
Ar 2.40734 -6.13169 4.76266
Ar -1.13129 0.531162 3.70939
Ar 4.51603 -2.86623 4.32061
Ar 2.91749 -1.0821 0.856113
Ar -1.49037 -5.57794 -2.16465
Ar 3.30344 -8.48459 0.769946
Ar -3.45508 1.93431 -1.62077
Ar -0.971919 3.62261 1.54494
Ar 4.03552 3.75352 -1.75104
38
Atoms. Timestep: 190000
Ar 4.50414 -3.87062 -1.35955
Ar 5.8888 -7.04828 0.357337
Ar -0.600573 2.29191 -1.69282
Ar 3.50349 -5.23959 2.21116
Ar 1.29416 -4.24242 -3.32256
Ar 0.0759199 0.0381149 8.1125
Ar 0.627524 -3.67913 0.0784125
Ar -3.88076 -1.42873 3.31134
Ar -2.53933 -4.96606 2.31664
Ar 6.4361 -6.9145 4.05564
Ar 6.30961 -0.352453 3.57559
Ar 6.61073 -3.62259 1.63133
Ar 0.753652 -3.50673 3.69528
Ar 1.52984 3.09735 6.06897
Ar -0.292688 -0.344059 1.07852
Ar 2.72877 -0.680552 5.65645
Ar -0.819688 -6.25176 5.72211
Ar -3.0194 -2.76222 -0.453574
Ar 1.41748 -3.51622 7.65663
Ar 0.427268 -6.93503 2.09556
Ar 6.1476 0.0848219 -0.48971
Ar 5.13553 2.61792 5.41138
Ar 2.20803 -7.20119 -1.05162
Ar 2.67266 5.17027 3.11944
Ar -2.07044 -2.36262 6.61416
Ar -0.823438 -1.35057 -3.03998
Ar 2.43916 1.42461 2.78342
Ar 2.19269 -0.425109 -1.50037
Ar 5.88705 3.59893 1.83226
Ar 2.85893 -7.12785 5.34079
Ar -0.687347 0.37337 4.53329
Ar 4.64733 -3.671 5.16161
Ar 3.46629 -1.77837 1.74877
Ar -1.53379 -6.15865 -1.6656
Ar 3.42445 -9.2147 1.81687
Ar -3.78508 0.745115 0.0726102
Ar -1.02854 3.47613 2.28565
Ar 2.67724 3.35131 -0.225502
38
Atoms. Timestep: 200000
Ar 3.79922 -4.04438 0.0298829
Ar 6.43313 -6.92875 0.867315
Ar 0.524474 3.0468 0.374742
Ar 3.68997 -5.9821 3.54898
Ar 0.767688 -4.28358 -2.10755
Ar 0.689931 -6.47497 10.054
Ar 0.66327 -4.93778 1.6224
Ar -4.39654 -2.48658 2.82617
Ar -2.2904 -5.53399 3.41744
Ar 5.90724 -7.88059 7.22199
Ar 5.87022 0.324364 3.55282
Ar 6.61925 -3.19096 1.98903
Ar 0.62381 -4.86498 5.38003
Ar 2.65226 2.31218 6.40824
Ar -0.613169 -2.00425 3.47612
Ar 4.70632 -0.977452 6.70103
Ar -1.89108 -7.6684 6.33366
Ar -2.16355 -3.27295 -0.0556888
Ar 3.35195 -4.4727 7.69848
Ar 0.538818 -8.29119 3.24791
Ar 5.49971 -0.587062 -0.763507
Ar 5.01583 3.82674 3.83681
Ar 2.67305 -7.49663 -0.139792
Ar 1.05521 4.28345 3.76937
Ar -2.4252 -3.2034 6.75844
Ar -0.762085 0.428192 -2.63417
Ar 1.8506 0.662975 3.06609
Ar 1.22664 -1.40935 0.231472
Ar 7.92999 2.7772 0.245982
Ar 2.08451 -8.41738 6.41823
Ar 0.971469 -1.50134 6.74066
Ar 6.64644 -4.27091 5.44691
Ar 3.0087 -2.55963 3.41458
Ar -1.59466 -7.33557 0.035034
Ar 4.75499 -9.45348 3.82248
Ar -2.23765 0.336471 1.25684
Ar -1.27694 1.39718 5.0927
Ar 4.11747 2.70909 0.439713
38
Atoms. Timestep: 210000
Ar 3.8953 -4.63657 0.4017
Ar 6.32947 -7.3582 1.16678
Ar -1.97269 3.41916 1.91748
Ar 3.75365 -6.38842 3.6904
Ar 0.700176 -6.09977 -1.57915
Ar 0.115058 -5.01056 9.18548
Ar 0.682136 -5.44358 2.15871
Ar -4.70231 -2.38386 3.1488
Ar -2.42259 -5.45107 3.80839
Ar 6.78502 -6.2188 5.60444
Ar 4.26952 -0.769893 0.681313
Ar 6.14753 -3.14497 2.99678
Ar 0.609418 -4.75313 5.69171
Ar 1.90918 1.74213 6.27946
Ar -0.955269 -2.17217 3.55603
Ar 4.91631 -0.593525 7.54616
Ar -1.70639 -7.81806 6.85842
Ar -2.30675 -4.39778 0.116987
Ar 3.81982 -4.22022 7.09532
Ar -0.197265 -8.80692 3.78121
Ar 0.97547 0.971647 -1.27484
Ar 4.92738 1.17059 3.78949
Ar 2.52647 -8.21663 0.730177
Ar -0.804448 4.15606 5.22668
Ar -2.7168 -3.32567 6.67697
Ar 2.68851 4.13615 3.37067
Ar 1.27918 0.914964 2.39048
Ar 0.952476 -2.38079 0.217364
Ar 3.74492 3.11348 -0.294442
Ar 2.85671 -7.96136 6.56816
Ar 1.04428 -1.58113 7.58679
Ar 7.51822 -2.69617 6.46928
Ar 2.52004 -2.06052 3.76451
Ar -1.75191 -7.74138 0.620976
Ar 4.37746 -10.2988 3.38561
Ar -2.18466 -0.273254 0.622632
Ar -2.66643 0.44491 5.23487
Ar 0.162283 4.78796 -1.00401
38
Atoms. Timestep: 220000
Ar 1.60531 -1.66864 -0.518941
Ar 4.85864 -5.04355 -1.44418
Ar -3.75393 4.40514 2.39116
Ar 2.51047 -4.65512 2.16728
Ar -1.8274 -3.46449 -2.25606
Ar -2.21171 -4.55492 7.62417
Ar -0.967768 -3.88216 1.36734
Ar -5.9908 -2.38243 3.63487
Ar -3.58226 -5.05252 4.0814
Ar 6.58084 -5.33242 2.75998
Ar 2.48001 1.66709 0.901689
Ar 4.76765 -1.81779 1.46657
Ar 0.613976 -3.87923 5.52278
Ar 1.63139 2.69736 4.84947
Ar -1.94268 -1.70362 4.0407
Ar 2.80262 0.220128 7.09589
Ar -0.219461 -7.74431 6.96705
Ar -4.51817 -4.20214 0.155363
Ar 2.9889 -3.35065 8.44519
Ar -0.48995 -6.93416 3.23158
Ar -3.69404 2.80874 -1.71306
Ar 5.00569 0.641782 3.96963
Ar 1.3566 -5.3087 -1.50071
Ar -0.734261 5.55703 4.83716
Ar -4.37523 -1.24845 6.80382
Ar 1.54979 5.07599 1.99631
Ar -1.21364 1.52062 2.10279
Ar -2.99113 -0.62826 0.0373739
Ar -0.202726 1.58918 -1.64615
Ar 3.01426 -6.72931 5.5201
Ar -0.749376 -0.885752 7.70995
Ar 4.47165 -3.18774 5.14762
Ar 1.45401 -0.899011 3.35334
Ar -1.75812 -7.15635 -0.429902
Ar 4.22534 -8.25535 0.954021
Ar -4.76709 0.813768 3.03105
Ar -2.59676 2.2694 5.68904
Ar -1.16712 5.30434 -0.166664
38
Atoms. Timestep: 230000
Ar -0.339093 -1.18069 -2.3887
Ar 3.44466 -2.90237 -2.26398
Ar -4.83739 4.69018 3.94356
Ar 1.38273 -2.95575 0.580886
Ar -4.38481 -3.6887 -1.85318
Ar -3.08727 -1.90785 7.1691
Ar -2.07263 -3.41681 0.945136
Ar -6.51566 -2.52226 5.23469
Ar -3.35412 -4.78021 4.2563
Ar 5.17947 -2.18814 0.958259
Ar 0.607295 4.02793 1.30938
Ar 2.35664 0.442722 -0.544896
Ar -0.512383 -2.5987 4.24128
Ar 0.269808 1.45767 4.4628
Ar -3.58386 -1.07279 3.56152
Ar 3.59341 1.03488 6.34946
Ar -0.368007 -6.27294 5.93091
Ar -5.65196 -3.33907 1.56545
Ar 2.76038 -2.91598 6.4939
Ar -0.255077 -6.45502 1.82992
Ar -5.46061 3.17606 0.081309
Ar 4.19378 2.24707 2.5869
Ar -0.543418 -5.30816 -2.01669
Ar -1.20886 5.05664 4.8638
Ar -6.58051 0.994384 4.71102
Ar 2.26539 4.38222 5.12395
Ar -2.69657 2.35389 2.37899
Ar -3.81694 -0.420936 -0.359614
Ar -1.89954 2.53454 -1.31876
Ar 2.54067 -4.96447 3.6236
Ar 0.33819 -0.138805 7.80113
Ar 2.69074 -1.04659 3.2292
Ar -0.638489 -0.0927906 1.33042
Ar -3.45595 -6.96482 0.355652
Ar 3.90375 -5.77446 0.264718
Ar -7.07007 0.121678 1.17059
Ar -3.12156 1.62673 6.26459
Ar -2.6099 5.60783 0.927598
38
Atoms. Timestep: 240000
Ar -2.87724 0.104402 -2.53288
Ar 0.136969 -0.820539 -4.51549
Ar -5.84792 5.37556 5.21267
Ar -0.0793102 -1.50331 -0.501795
Ar -7.17141 -2.97513 -1.14605
Ar -4.45125 -2.13413 6.43827
Ar -3.68127 -2.18187 0.379423
Ar -7.95344 -1.28654 5.05926
Ar -3.25313 -4.84183 3.61512
Ar 3.3485 0.0970096 -2.3126
Ar -0.86965 4.29986 1.32291
Ar -0.0448628 2.04901 -1.88679
Ar -1.17965 -1.65499 2.95277
Ar -1.04571 1.52387 4.48747
Ar -4.82024 -0.488834 3.33034
Ar -0.377016 2.97551 7.84841
Ar 0.53715 -4.20824 5.08054
Ar -6.65539 -3.93126 2.30428
Ar 2.20744 -0.394964 5.51768
Ar -0.36553 -5.06922 0.932994
Ar -6.98472 4.92187 0.79835
Ar 2.4615 4.61085 -0.656114
Ar -1.80349 -4.03595 -2.47446
Ar -1.46366 5.1388 4.72019
Ar -7.58283 2.11525 3.69852
Ar 2.0093 3.61062 4.16081
Ar -4.07413 3.14163 3.21586
Ar -5.71066 1.03897 0.0120224
Ar -3.61756 4.18285 -0.959451
Ar 2.50447 -2.67474 2.06788
Ar -0.871777 -1.0133 7.54637
Ar 1.3964 1.29517 1.38852
Ar -2.25416 1.12416 0.899219
Ar -4.0632 -5.89799 0.28454
Ar 2.05513 -3.80482 -2.8271
Ar -8.40498 -0.703492 1.38946
Ar -4.22462 2.14036 6.6755
Ar -3.90634 6.67935 2.21485
38
Atoms. Timestep: 250000
Ar -5.44085 1.27984 -2.77389
Ar -2.64819 0.94191 -5.17734
Ar -7.28664 5.73481 5.62621
Ar -1.62479 0.0674103 -1.85424
Ar -7.69619 -1.73999 -1.88331
Ar -4.62029 -2.07676 6.82866
Ar -4.39146 -1.34428 0.106261
Ar -8.06787 -1.49957 5.38774
Ar -3.70239 -3.39501 3.11403
Ar 1.75195 1.65725 -2.73367
Ar -2.23352 5.52388 0.620937
Ar -2.55474 3.63458 -2.86327
Ar -1.68154 -0.387074 2.04588
Ar -2.22312 2.86713 3.63819
Ar -5.27904 0.197496 3.52886
Ar -0.58784 2.88738 7.06023
Ar 0.413472 -3.0445 3.65956
Ar -7.27036 -2.77828 1.71473
Ar 1.38444 1.16019 3.71419
Ar -1.40801 -3.6873 0.169345
Ar -8.92885 4.64348 1.85544
Ar 0.583401 5.46686 -2.00868
Ar -4.09661 -2.27147 -3.46375
Ar -3.18696 5.85892 5.24498
Ar -8.24374 2.10733 4.67531
Ar 0.346257 5.08926 3.85133
Ar -5.52316 4.11901 2.93409
Ar -7.02666 1.83723 0.440779
Ar -5.82699 5.12993 -0.584629
Ar 1.39741 -1.2521 -0.149908
Ar -1.73657 -0.316958 5.85857
Ar 0.147743 2.69263 0.486883
Ar -3.40457 2.26415 0.224341
Ar -4.9123 -4.95498 -0.813382
Ar 0.260049 -2.38816 -3.52759
Ar -9.72407 -0.215269 2.16066
Ar -4.81103 2.85883 6.37362
Ar -6.55221 7.70714 2.33407
38
Atoms. Timestep: 260000
Ar -7.23629 2.3017 -2.85694
Ar -4.64869 2.12649 -5.94031
Ar -8.26207 5.9638 6.12462
Ar -3.33483 1.2906 -2.41519
Ar -8.8903 -1.08942 -2.59699
Ar -5.50588 -0.13123 6.87133
Ar -5.77852 -0.593855 -0.293961
Ar -8.08697 -1.83758 4.76014
Ar -3.90413 -2.28786 3.15951
Ar -1.32665 3.42599 -4.3561
Ar -3.97946 6.62077 0.896194
Ar -4.21112 5.23418 -2.58554
Ar -2.81637 0.732977 1.30286
Ar -3.34014 3.62795 3.29953
Ar -6.1853 0.719337 3.05949
Ar -0.663955 4.0487 5.6152
Ar -0.0411808 -2.04513 1.63469
Ar -8.47753 -2.70067 0.93399
Ar 0.208445 2.43439 2.53109
Ar -2.62126 -2.35091 -1.06913
Ar -10.5117 4.27143 2.96263
Ar -1.03984 7.13398 -1.40418
Ar -5.05468 -1.22085 -4.45696
Ar -3.32902 7.1725 4.54369
Ar -8.34035 1.83714 5.68655
Ar -0.47056 6.04996 2.43425
Ar -6.74065 4.40996 3.2428
Ar -8.57095 1.93237 0.650448
Ar -7.79213 5.64706 -1.01437
Ar 0.407924 0.856885 -1.0886
Ar -1.94767 0.611957 4.91933
Ar -1.60869 3.92432 -0.296029
Ar -5.27668 3.20385 0.146497
Ar -6.31141 -4.19173 -2.14384
Ar -1.68358 -0.519513 -5.23592
Ar -10.793 0.283102 3.0715
Ar -4.81201 3.8714 6.59339
Ar -7.17083 8.2624 2.60783
38