38
Atoms. Timestep: 0
Ar 1.668 1.873 0
Ar 5.651 1.903 0.003
Ar 1.878 5.656 -0.01
Ar -1.867 1.863 -0.007
Ar -5.65 1.873 -0.014
Ar -1.898 5.645 -0.014
Ar -1.857 -1.873 0
Ar -5.64 -1.903 -0.003
Ar -1.867 -5.656 0.01
Ar 1.878 -1.863 0.007
Ar 5.661 -1.873 0.014
Ar 1.909 -5.645 0.014
Ar 0.002 0.007 2.642
Ar 3.751 0.017 2.659
Ar -3.75 -0.003 2.646
Ar -0.008 3.756 2.646
Ar 0.012 -3.745 2.659
Ar 3.761 3.786 2.656
Ar -3.778 3.766 2.646
Ar -3.757 -3.773 2.663
Ar 3.781 -3.752 2.673
Ar 0.009 -0.007 -2.642
Ar 3.761 0.003 -2.646
Ar -3.74 -0.017 -2.659
Ar -0.002 3.746 -2.659
Ar 0.019 -3.756 -2.646
Ar 3.768 3.773 -2.663
Ar -3.771 3.752 -2.673
Ar -3.75 -3.786 -2.656
Ar 3.788 -3.766 -2.646
Ar 1.871 1.897 5.329
Ar -1.888 1.886 5.325
Ar -1.878 -1.873 5.332
Ar 1.881 -1.863 5.339
Ar 1.888 1.873 -5.332
Ar -1.871 1.863 -5.339
Ar -1.861 -1.897 -5.329
Ar 1.898 -1.886 -5.325
38
Atoms. Timestep: 10000
Ar 1.22532 2.84394 0.537488
Ar 6.12185 2.99409 -0.780701
Ar 3.05267 6.07693 0.0338878
Ar -3.12594 0.193667 1.22597
Ar -6.60997 1.49994 0.0650926
Ar -0.608542 6.08384 0.353096
Ar -1.83431 -2.84921 -0.739866
Ar -5.4365 -2.51457 0.140054
Ar -3.15885 -6.02939 0.0661036
Ar 1.94339 -2.43106 -0.880948
Ar 4.27246 -4.53871 1.34407
Ar 3.51531 -5.58322 -2.74628
Ar 0.305452 -0.60136 1.85132
Ar 4.09249 0.157758 1.36169
Ar -5.95612 -0.563646 3.24528
Ar 1.68837 5.27238 3.71262
Ar 0.322622 -4.58218 1.62095
Ar 5.08841 3.83338 2.63115
Ar -4.64327 3.56649 2.31306
Ar -2.60577 -3.04691 3.11584
Ar 2.93322 -2.31792 4.22248
Ar -0.631399 0.331519 -1.73999
Ar 3.29421 0.915409 -2.25115
Ar -4.16928 -0.539132 -2.61323
Ar 0.718054 4.1079 -2.80252
Ar -0.07047 -5.37382 -2.52483
Ar 4.11632 4.05431 -4.18013
Ar -2.53317 3.28694 -0.833784
Ar -3.91297 -4.17047 -3.24172
Ar 5.45406 -2.20162 -2.37673
Ar 1.98354 1.31574 4.7346
Ar -1.09698 2.51948 3.16594
Ar -3.16817 0.303885 5.31013
Ar -0.323601 -2.08776 6.17123
Ar 1.77218 1.46288 -5.81545
Ar -2.46141 2.37907 -4.36577
Ar -1.65173 -1.6234 -4.896
Ar 2.10053 -2.14415 -4.43295
38
Atoms. Timestep: 20000
Ar 1.73304 2.5697 0.468569
Ar 4.86766 4.03981 2.02482
Ar 4.33263 4.58024 -1.8857
Ar -3.2074 0.388076 0.628033
Ar -5.65706 2.43365 -0.919076
Ar 1.35157 6.23715 0.104086
Ar -1.76388 -2.69169 -0.685337
Ar -5.11528 -3.03733 0.0533883
Ar -2.64618 -6.26962 0.835347
Ar 1.90769 -2.36178 -1.50376
Ar 4.25487 -3.79881 0.758976
Ar 3.33399 -4.80424 -3.46825
Ar 0.953374 -0.736051 1.40722
Ar 4.42906 0.151334 0.878574
Ar -5.91841 -0.648934 3.03372
Ar 1.27678 4.49994 3.69168
Ar 0.65697 -4.3014 1.50182
Ar 2.6408 1.06093 4.10004
Ar -4.55785 3.03564 3.01953
Ar -2.02497 -2.29921 3.14201
Ar 3.11749 -2.45661 3.88848
Ar -0.861457 0.59282 -2.05603
Ar 3.03031 1.08991 -2.39877
Ar -4.29469 -0.683985 -2.74306
Ar 0.600577 3.89664 -2.93227
Ar 0.0182588 -5.69835 -1.93924
Ar 3.20521 2.5317 -5.93386
Ar -1.81449 3.90848 -0.0471378
Ar -3.47465 -4.26743 -3.4489
Ar 5.46963 -1.75831 -2.34792
Ar 0.426149 2.8198 6.92405
Ar -1.1096 1.71281 3.45296
Ar -3.25782 0.469258 6.09752
Ar 0.0845699 -1.12291 5.74768
Ar -0.765126 1.06261 -5.85451
Ar -3.19602 3.18235 -3.77713
Ar -0.651438 -2.37272 -4.44912
Ar 2.62771 -0.952463 -5.36843
38
Atoms. Timestep: 30000
Ar 1.80087 2.99566 0.589163
Ar 5.11621 3.42813 2.28346
Ar 4.03211 5.04062 -2.06094
Ar -2.73113 0.37606 1.01758
Ar -5.83744 1.41435 -0.701464
Ar 0.734593 6.40411 -0.0650831
Ar -1.37634 -2.66857 -0.301735
Ar -5.32458 -2.67743 0.232068
Ar -2.86458 -5.7304 1.22695
Ar 1.9555 -2.16607 -1.95066
Ar 3.68757 -4.35916 0.0455127
Ar 2.79812 -4.60759 -4.50102
Ar 0.835908 -0.678063 1.57968
Ar 4.55819 0.0160665 0.983868
Ar -6.4669 -0.178081 2.58806
Ar 1.74656 5.63392 3.66407
Ar 0.540506 -4.69798 2.1239
Ar 2.88065 1.03637 4.32783
Ar -4.80995 3.14587 2.60008
Ar -2.72509 -2.65204 2.98156
Ar 3.2897 -2.64911 3.6616
Ar -0.29625 0.811541 -1.65658
Ar 3.42711 1.22565 -2.54923
Ar -3.70213 -0.86543 -2.75344
Ar 0.308151 4.01841 -3.0715
Ar -0.0490048 -5.80405 -1.55121
Ar 3.16545 3.01555 -5.87048
Ar -2.17804 4.15514 0.0692821
Ar -3.4323 -4.76718 -2.39488
Ar 5.73007 -1.79615 -2.57638
Ar -0.05144 1.91682 7.00918
Ar -0.718966 2.56256 3.30123
Ar -3.14863 0.523961 5.13818
Ar 0.064218 -1.54781 5.15924
Ar -0.075551 1.02026 -5.40225
Ar -3.21576 2.69141 -3.38259
Ar -0.631226 -2.59557 -4.30126
Ar 2.96582 -0.990779 -5.4918
38
Atoms. Timestep: 40000
Ar 1.73069 3.12744 0.581792
Ar 4.7979 4.72392 1.84106
Ar 4.08446 4.71431 -2.10103
Ar -3.47681 0.149921 1.04848
Ar -6.06387 2.11022 -1.13779
Ar 1.51622 6.83412 -0.0812115
Ar -1.75354 -2.60887 -0.623138
Ar -5.4559 -3.13955 0.207163
Ar -3.11221 -5.77711 0.914653
Ar 1.55149 -2.50039 -2.10712
Ar 3.55817 -4.46414 0.253865
Ar 4.00641 -5.23084 -3.40307
Ar 1.86143 -1.01138 1.03035
Ar 5.14862 0.911465 1.06697
Ar -6.269 -0.763586 3.07554
Ar 1.64003 5.22947 3.62928
Ar 0.026717 -4.43727 1.85677
Ar 2.89017 1.66833 3.78582
Ar -4.48152 3.10735 3.00485
Ar -2.85501 -2.70844 3.08075
Ar 4.38592 -2.45956 3.3638
Ar -0.67107 0.767864 -1.08879
Ar 2.80196 0.889595 -2.28977
Ar -3.85426 -0.713157 -2.83422
Ar 0.703621 4.066 -2.6612
Ar -0.0639093 -5.87177 -1.7929
Ar 3.10778 2.7705 -5.41833
Ar -2.11602 4.2149 0.360581
Ar -3.72767 -4.79418 -2.82796
Ar 5.25761 -1.88159 -1.78537
Ar -0.13651 2.16464 6.53991
Ar -0.786784 1.4649 2.78353
Ar -3.13822 0.266716 4.99225
Ar 0.524956 -1.40446 4.81101
Ar -0.194912 1.1524 -4.82779
Ar -3.00224 2.94726 -3.09645
Ar -1.13014 -2.40127 -4.63602
Ar 2.69744 -1.11276 -5.51628
38
Atoms. Timestep: 50000
Ar 1.21067 2.75083 0.615264
Ar 3.47378 4.71472 2.71515
Ar 4.23004 4.62441 -1.46907
Ar -4.22125 0.138252 -0.512133
Ar -5.96312 2.97722 0.822434
Ar 1.50604 6.61681 0.231375
Ar -1.73672 -2.45877 -0.459637
Ar -5.6436 -2.90802 0.574113
Ar -2.55897 -5.77966 0.972481
Ar 1.40118 -2.12368 -2.35973
Ar 3.35787 -4.52454 0.0884291
Ar 2.80876 -5.23116 -4.48802
Ar 1.71112 -0.713947 0.945777
Ar 5.21946 1.48159 1.08339
Ar -5.34577 0.162904 3.59095
Ar -0.147278 4.66971 3.44313
Ar 0.517243 -4.59428 2.19899
Ar 2.87295 1.27701 3.73048
Ar -3.84415 3.73255 3.69201
Ar -2.58353 -2.6951 3.18141
Ar 4.63168 -2.14971 2.87928
Ar -0.722371 0.998659 -1.61606
Ar 3.0825 1.20819 -2.32816
Ar -2.87701 -0.872161 -3.80428
Ar 0.93567 3.89386 -3.18986
Ar -0.019621 -5.42076 -1.7715
Ar 3.38744 2.50774 -6.04537
Ar -2.33789 4.30183 0.363427
Ar -4.17991 -4.38944 -2.4812
Ar 5.1971 -1.43116 -0.928746
Ar -0.00848881 2.20674 6.36698
Ar -1.59698 0.840634 2.38527
Ar -2.60777 -0.15228 5.94283
Ar 0.703061 -1.45469 4.39958
Ar 0.465336 0.336779 -5.29199
Ar -3.21291 3.0381 -3.15791
Ar -0.738968 -3.76972 -5.05182
Ar 3.63644 -1.80845 -5.26726
38
Atoms. Timestep: 60000
Ar 1.92734 2.78211 0.739911
Ar 4.50748 5.18457 2.12664
Ar 3.954 5.02174 -1.75332
Ar -3.42104 0.0572977 0.52595
Ar -5.641 3.03553 -0.184385
Ar 0.495078 6.59438 0.000103881
Ar -0.777762 -2.4252 0.374948
Ar -4.86793 -3.50685 -0.250142
Ar -2.19078 -5.71442 1.49784
Ar 1.15533 -1.90515 -2.80765
Ar 2.15718 -4.94204 -0.230009
Ar 2.0732 -5.38156 -4.19953
Ar 2.33289 -0.914398 0.895616
Ar 5.38804 1.30638 0.831067
Ar -5.93815 -0.713115 3.53104
Ar -0.0490395 4.39217 3.34779
Ar 0.625328 -4.15994 3.28062
Ar 2.6335 1.60807 4.10753
Ar -3.93007 3.27424 3.29983
Ar -2.69245 -2.20929 3.46869
Ar 4.15141 -1.6725 3.9562
Ar -0.370664 0.874347 -1.13304
Ar 3.28981 1.18098 -2.307
Ar -2.30329 -1.57707 -2.98429
Ar 0.484395 4.03811 -2.71649
Ar -1.18539 -5.01703 -2.21652
Ar 3.06211 2.78269 -5.64908
Ar -1.95499 3.78525 0.197313
Ar -4.15219 -4.08194 -5.42203
Ar 4.77736 -2.32714 -1.68442
Ar -0.156313 2.3882 6.39208
Ar -0.726693 0.743564 2.72235
Ar -3.15867 0.0190128 6.2107
Ar 0.648297 -1.15954 5.60175
Ar 0.0750928 0.776192 -4.81934
Ar -3.31413 2.40498 -3.16367
Ar -0.370093 -3.35946 -5.74257
Ar 3.4648 -1.18218 -5.84449
38
Atoms. Timestep: 70000
Ar 1.70678 2.56589 1.17656
Ar 4.0958 3.17965 4.02577
Ar 4.21341 4.90787 -1.49075
Ar -3.90242 -0.342488 0.621324
Ar -4.08263 2.11504 -2.40089
Ar 1.15218 6.76559 -0.134343
Ar -1.05235 -2.71908 0.173174
Ar -4.21996 -4.68961 -0.492046
Ar -1.19151 -6.10059 1.72585
Ar 0.881249 -1.82167 -2.8788
Ar 2.26144 -4.9094 0.3665
Ar 2.87934 -4.88885 -3.53074
Ar 2.30065 -1.07726 0.673827
Ar 5.75778 0.876807 1.13833
Ar -4.64512 0.384981 4.46668
Ar 1.20717 5.55214 3.53239
Ar 0.820449 -3.34252 3.60601
Ar 2.32974 0.0472652 4.25391
Ar -5.196 2.85547 1.50474
Ar -3.24009 -2.90081 3.02248
Ar 4.53601 -2.61716 2.95475
Ar -0.615853 0.915224 -1.14247
Ar 2.65684 1.32416 -2.82707
Ar -2.94472 -2.00095 -2.99419
Ar 0.38223 4.30274 -2.81835
Ar -0.735567 -5.49426 -1.95182
Ar 3.90402 3.19332 -5.68793
Ar -1.53561 4.0735 0.566991
Ar -3.48069 -5.60207 -4.40607
Ar 4.59451 -1.68716 -2.48646
Ar 0.273171 2.41348 6.15571
Ar -0.885992 0.631679 2.56257
Ar -2.6795 3.98884 4.08279
Ar -1.23822 -1.34765 5.83954
Ar -1.098 0.740463 -5.08872
Ar -5.18953 5.66497 -0.402336
Ar -0.716484 -3.6741 -5.75348
Ar 2.69947 -1.28243 -5.96342
38
Atoms. Timestep: 80000
Ar 1.37594 2.07105 0.96273
Ar 3.41958 4.23089 2.8263
Ar 3.0373 4.43288 -1.08497
Ar -4.00613 -0.756951 0.557314
Ar -4.41535 1.96714 -2.143
Ar 0.340796 5.67284 1.44958
Ar -0.668866 -2.81801 0.0503959
Ar -4.29763 -4.30065 -0.956542
Ar -1.45741 -6.0514 1.37986
Ar 1.05825 -2.25909 -2.79561
Ar 2.01796 -5.12935 0.0352929
Ar 2.43237 -5.71232 -3.76157
Ar 2.69202 -1.27039 0.23417
Ar 5.0546 1.57945 0.342864
Ar -3.58352 1.67648 4.32812
Ar 0.729976 6.94372 5.17159
Ar 0.976299 -3.53823 3.39219
Ar 2.75927 -0.0833471 3.72813
Ar -5.57231 3.71282 1.42862
Ar -2.79431 -3.28841 3.66173
Ar 4.67439 -3.16941 2.65413
Ar -1.02548 0.586046 -1.47494
Ar 2.63156 1.04138 -2.40388
Ar -2.72734 -2.21044 -3.69083
Ar -0.473122 4.15565 -1.94707
Ar -0.998614 -5.85635 -2.08155
Ar 2.07406 4.51419 -4.65537
Ar -2.15643 2.90247 1.01198
Ar -3.35687 -5.58577 -5.01312
Ar 5.32648 -2.97751 -1.76028
Ar 0.19113 2.78212 4.29565
Ar -0.937399 -0.262613 2.49071
Ar -2.61404 5.42767 3.61538
Ar -0.134297 -0.33509 6.32696
Ar -0.216691 0.658999 -4.83858
Ar -3.2533 6.01787 -0.231545
Ar 0.252063 -3.23223 -6.07148
Ar 3.64709 -1.53508 -5.03334
38
Atoms. Timestep: 90000
Ar 1.34858 2.28381 1.19086
Ar 3.24322 3.72814 3.79755
Ar 3.6843 4.55887 -0.605402
Ar -3.90771 -0.419568 0.35038
Ar -3.51563 2.34934 -2.38509
Ar 0.64577 5.85641 1.33217
Ar -1.06095 -2.9902 -0.00778973
Ar -3.80818 -5.48242 0.0680703
Ar -0.699761 -5.74058 2.31285
Ar 0.923366 -2.27533 -3.04035
Ar 1.81603 -5.84067 -1.06622
Ar 2.29797 -5.41421 -5.06786
Ar 2.09254 -1.63719 0.702358
Ar 4.71439 1.23914 1.09866
Ar -3.6397 1.43321 4.66591
Ar 0.287941 6.80514 5.12472
Ar 1.1106 -3.14231 4.0893
Ar 2.22783 0.313208 4.19182
Ar -5.81223 3.30395 0.453076
Ar -3.27221 -2.93754 3.06229
Ar 5.28001 -3.32317 0.223116
Ar -0.387737 0.518168 -1.14942
Ar 3.3476 0.909621 -2.14689
Ar -2.77808 -1.50357 -3.29198
Ar -0.0239528 4.07886 -1.87161
Ar -1.36274 -8.25059 -0.809138
Ar 2.50798 3.8082 -4.49106
Ar -2.06726 3.13287 0.972336
Ar -1.60026 -5.00938 -3.31342
Ar 4.45433 -2.62406 -3.02449
Ar -0.323619 2.91438 4.44055
Ar -0.856976 -0.231785 2.6316
Ar -2.75598 6.08078 2.92521
Ar -0.691192 -0.392114 6.46453
Ar -0.206832 1.41288 -4.56877
Ar -3.01659 5.99987 -0.996239
Ar -0.76326 -3.02068 -6.43972
Ar 2.57039 -0.490472 -5.82191
38
Atoms. Timestep: 100000
Ar 1.87363 2.02247 1.25789
Ar 4.94694 3.89347 2.92174
Ar 4.2292 4.1512 -0.787765
Ar -3.91564 -0.853146 0.838539
Ar -4.09831 1.80368 -1.72179
Ar 1.53533 5.77714 1.50067
Ar -0.739185 -3.00874 -0.171463
Ar -3.98596 -4.40154 -0.248913
Ar -2.4685 -3.52197 3.20958
Ar 1.1969 -1.75822 -3.39788
Ar 2.47901 -4.98303 -0.599331
Ar 2.88669 -4.92893 -4.76107
Ar 2.29236 -1.34199 0.0318558
Ar 5.28413 0.817713 0.383054
Ar -3.41317 0.152105 4.70189
Ar -3.24642 4.45957 4.57663
Ar 1.62809 -4.04131 2.97426
Ar 3.64581 -0.296383 3.54868
Ar -5.94248 2.67949 2.29523
Ar -6.09539 -1.94312 3.6941
Ar 5.04892 -3.08334 1.58408
Ar -0.685622 0.654489 -1.04492
Ar 2.86065 1.25077 -2.74266
Ar -2.73077 -1.75571 -3.23574
Ar 0.461577 3.99041 -1.38045
Ar -1.14659 -6.59081 0.59934
Ar 1.89598 3.95224 -4.84483
Ar -2.06847 3.00548 1.20275
Ar -0.916834 -4.92973 -3.28602
Ar 4.83063 -2.1128 -2.90334
Ar 0.28025 3.30446 4.36577
Ar -0.428611 -0.403172 2.63289
Ar -4.19756 5.91801 1.41492
Ar -0.573166 -2.20965 6.01881
Ar -0.616334 1.14974 -4.75724
Ar -1.49216 6.9699 -0.941617
Ar -1.0235 -2.95256 -6.2326
Ar 2.41058 -0.835188 -6.69507
38
Atoms. Timestep: 110000
Ar 1.86265 2.3808 1.55382
Ar 3.60105 4.10598 4.08937
Ar 3.46229 5.31285 -0.0534418
Ar -3.3052 -0.278092 0.817685
Ar -3.16485 2.85021 -1.62662
Ar -0.249983 5.37221 4.1577
Ar -0.955953 -2.7911 -0.21799
Ar -4.65425 -3.8428 -0.639241
Ar -2.55427 -3.33408 3.18024
Ar 0.799059 -1.79075 -3.24896
Ar 2.61942 -4.88074 -0.817852
Ar 2.81904 -5.474 -4.71051
Ar 2.84838 -1.19067 -0.148159
Ar 5.63446 1.60456 -0.402756
Ar -3.06487 0.210173 4.74895
Ar -3.89787 4.74176 4.25266
Ar 1.76643 -3.76855 2.70017
Ar 3.53824 -0.231366 3.55985
Ar -5.60759 2.23022 1.96224
Ar -5.8395 -1.85942 2.89467
Ar 5.36339 -3.51075 1.04681
Ar -0.304829 0.632449 -0.896546
Ar 3.13586 1.4537 -3.22953
Ar -3.10693 -1.63228 -3.06113
Ar 0.201719 4.01765 -2.03352
Ar -0.927848 -6.14198 0.880068
Ar 0.158774 0.384099 -8.19714
Ar -1.68483 3.09663 1.7553
Ar -1.56876 -4.89895 -3.3321
Ar 5.27033 -1.50617 -2.80065
Ar 0.162784 2.13167 5.31241
Ar -0.192853 -0.573481 2.51945
Ar -4.2382 5.8861 0.676996
Ar 0.596843 -2.08444 5.80801
Ar -0.326242 1.52854 -4.63748
Ar -0.447325 6.87003 0.778581
Ar -1.19593 -3.27314 -6.59238
Ar 3.44938 -1.74586 -6.04897
38
Atoms. Timestep: 120000
Ar 1.72712 2.09075 0.783555
Ar 4.17961 3.25563 3.21076
Ar 4.54688 4.49952 -0.269617
Ar -3.76441 -0.542754 0.430836
Ar -3.92275 2.50518 -1.74524
Ar 1.51627 5.89819 1.57632
Ar -0.924564 -2.96783 -0.393051
Ar -4.12674 -4.53257 0.152076
Ar -2.23546 -3.58455 3.66214
Ar 0.772546 -2.01028 -3.33279
Ar 3.12713 -4.8003 -1.11782
Ar 2.274 -5.21748 -4.96658
Ar 2.19747 -1.40384 -0.0243395
Ar 4.95039 0.824211 -0.0059539
Ar -3.53753 0.321477 4.13723
Ar -2.29554 3.91671 5.16111
Ar 1.63293 -3.75112 2.99242
Ar 2.82232 -0.44563 3.46057
Ar -5.75424 2.25696 2.02204
Ar -6.20683 -1.98893 3.22181
Ar 5.47794 -2.96115 1.3391
Ar -0.795155 0.59654 -1.1784
Ar 2.54988 1.37239 -3.12892
Ar -2.94981 -1.40554 -3.09577
Ar -0.459455 4.00018 -2.39425
Ar -1.17803 -6.5353 1.18621
Ar 2.38792 -0.840676 -6.31828
Ar -1.95897 3.15936 1.40425
Ar -1.7255 -4.98438 -3.07924
Ar 4.37586 -1.94788 -3.11163
Ar 1.16514 2.51953 4.51797
Ar -0.547079 -0.614064 2.34302
Ar -3.2218 6.01926 -0.611373
Ar -0.62956 -1.17221 5.86742
Ar -0.668738 1.10639 -4.85337
Ar -2.04149 6.69979 2.7645
Ar -1.83463 -3.0105 -6.42301
Ar 5.07685 3.67594 -4.1837
38
Atoms. Timestep: 130000
Ar 2.00967 2.69093 0.418653
Ar 3.87115 3.93322 3.24315
Ar 3.88952 4.6839 -1.90767
Ar -3.76733 -0.188414 0.435909
Ar -3.7117 2.71246 -2.18809
Ar 0.680721 6.18911 1.92074
Ar -0.775704 -2.7952 0.0303327
Ar -4.11743 -3.92394 -0.349352
Ar -2.65179 -2.73983 3.28637
Ar 0.843327 -2.23839 -3.23064
Ar 2.10345 -5.00204 -1.00194
Ar 2.0363 -5.34516 -4.92526
Ar 2.47644 -1.32375 -0.0792647
Ar 5.33551 0.949107 -0.00226367
Ar -2.79023 1.0089 4.24736
Ar -6.06143 2.20429 6.31304
Ar 1.82137 -3.60362 2.60072
Ar 3.58321 0.240264 3.20031
Ar -5.53395 2.84186 2.29829
Ar -6.14751 -1.34334 3.13186
Ar 6.00626 -3.04793 0.446398
Ar -0.546383 0.44911 -1.28634
Ar 2.83752 1.25178 -2.80224
Ar -3.19417 -1.35517 -3.00494
Ar -0.0383262 4.20514 -1.94623
Ar -1.25622 -6.30962 1.06553
Ar 2.71774 -0.71924 -6.12737
Ar -1.92364 3.14703 1.17209
Ar -1.38552 -5.53562 -2.81719
Ar 4.34803 -2.85395 -2.95726
Ar 0.548746 2.75222 4.37465
Ar 0.063953 -0.0139912 2.23156
Ar -2.79708 6.46494 -0.502637
Ar 0.208735 -1.48209 5.33441
Ar -0.695168 1.0298 -4.9736
Ar -2.8901 5.23347 4.36311
Ar -1.21138 -2.51516 -6.02514
Ar 6.11541 0.349945 -3.98707
38
Atoms. Timestep: 140000
Ar 1.83915 2.25587 0.701108
Ar 4.15272 3.17176 3.55555
Ar 4.06301 4.43162 -1.57216
Ar -3.4711 -0.595971 0.948672
Ar -4.20378 1.80399 -1.42875
Ar 0.203017 6.28656 1.66288
Ar -0.836222 -3.09527 -0.0948719
Ar -4.21041 -4.73563 -0.187197
Ar -2.04526 -3.39224 3.86915
Ar 0.57401 -2.06236 -3.17115
Ar 2.39562 -4.86605 -1.29638
Ar 1.64561 -4.51033 -5.48854
Ar 2.83581 -1.38616 -0.230918
Ar 5.56584 1.28605 0.470765
Ar -2.63441 1.21837 4.21971
Ar -5.78229 2.98226 5.5479
Ar 1.35683 -3.76291 2.54653
Ar 3.6342 -0.494367 3.44552
Ar -5.18866 3.43578 1.72069
Ar -6.80766 0.173515 2.54164
Ar 6.10925 -2.68578 0.292532
Ar -0.771572 0.403941 -1.00374
Ar 2.54127 1.21139 -2.74987
Ar -3.26869 -1.70965 -2.89128
Ar 0.0482671 3.87436 -1.92071
Ar -0.761662 -6.5114 1.23324
Ar 2.70287 -1.12253 -6.67999
Ar -1.60063 2.94507 1.45444
Ar -1.39176 -5.45015 -3.09754
Ar 4.48063 -2.32181 -3.43793
Ar 0.663762 2.79827 4.37255
Ar 0.0890621 -0.361902 2.38858
Ar -2.93733 6.20444 -0.388697
Ar -0.0520655 -0.861516 5.9951
Ar -0.787744 1.00567 -4.60332
Ar -3.11744 5.80445 3.56477
Ar -1.43352 -2.50061 -6.36962
Ar 6.40328 1.13426 -3.91869
38
Atoms. Timestep: 150000
Ar 1.48072 2.12446 0.68259
Ar 4.51314 3.29623 2.82061
Ar 3.44684 4.64549 -1.10036
Ar -4.1841 -1.38872 0.452305
Ar -4.03594 2.82959 -1.85091
Ar 1.37047 5.73696 1.99318
Ar -0.915605 -3.27277 -0.157531
Ar -3.77254 -5.27168 -0.232632
Ar -2.81676 -3.59736 3.13639
Ar 0.615824 -1.88362 -3.2815
Ar 2.53991 -4.84506 -1.06384
Ar 2.50804 -4.68924 -5.24046
Ar 2.24962 -1.4992 0.00291574
Ar 4.90127 0.586665 -0.448498
Ar -2.63549 2.01689 5.25442
Ar -5.18158 6.00696 2.68599
Ar 0.978777 -4.31047 2.99738
Ar 3.53856 -0.37172 3.13649
Ar -5.11111 2.1369 2.254
Ar -5.11885 -1.20936 4.63777
Ar 5.53897 -3.07369 0.552837
Ar -1.49395 0.365278 -1.02768
Ar 2.29296 1.50382 -2.88845
Ar -2.97817 -2.15207 -3.2121
Ar -0.274811 4.44841 -1.43683
Ar -0.442994 -6.98658 0.265394
Ar 2.66608 -0.598384 -6.19348
Ar -1.90886 3.58528 1.41124
Ar -0.766332 -5.18804 -3.04503
Ar 4.43346 -1.95205 -2.92778
Ar 0.62793 2.48114 4.20629
Ar -0.656216 -0.557575 2.55949
Ar -2.30461 7.02122 0.190989
Ar -1.24513 -1.00215 6.34514
Ar -1.33214 1.17892 -4.49863
Ar -1.42024 5.90753 4.58452
Ar -0.656076 -3.4271 -6.64697
Ar 5.55094 1.40608 -4.91724
38
Atoms. Timestep: 160000
Ar 1.56784 1.94974 0.961064
Ar 3.99092 3.31632 3.47863
Ar 3.61111 4.0103 -0.884538
Ar -4.03126 -0.999315 0.751745
Ar -4.23655 1.81195 -2.20297
Ar 1.20431 5.41653 1.81232
Ar -0.898196 -3.24671 -0.304887
Ar -3.84935 -5.44177 -0.524091
Ar -2.21117 -3.50367 3.38503
Ar 0.322642 -1.91629 -3.73301
Ar 2.53574 -4.81404 -1.77349
Ar 1.4136 -4.72983 -5.64903
Ar 2.28603 -1.36415 -0.261532
Ar 5.36416 0.445583 0.336346
Ar -3.82956 3.61088 5.21332
Ar -5.36012 4.77151 0.0716307
Ar 1.69582 -3.73955 2.52398
Ar 3.36135 -0.269279 3.31416
Ar -5.87744 1.70197 2.61616
Ar -2.95186 0.147378 4.75347
Ar 5.45716 -3.03949 1.32501
Ar -0.935966 0.521242 -1.15916
Ar 2.25978 1.14037 -2.83658
Ar -3.23174 -1.96328 -2.81022
Ar -0.775267 4.00029 -1.23783
Ar 0.0345804 -6.84576 0.463906
Ar 2.54379 -0.818289 -6.15959
Ar -2.18169 2.99861 1.75168
Ar -2.00577 -5.23318 -3.89301
Ar 4.36492 -2.1184 -3.05084
Ar 0.484832 2.63351 4.67247
Ar -0.312623 -0.532735 2.40136
Ar -2.21832 6.9472 0.903107
Ar 0.361594 -1.32881 5.79941
Ar -1.08887 1.43741 -4.66886
Ar -1.07604 5.9748 4.53657
Ar -1.7477 -2.37788 -6.72582
Ar 5.96132 1.44783 -3.19594
38
Atoms. Timestep: 170000
Ar 2.00259 2.01237 1.71385
Ar 5.12858 3.93404 2.04768
Ar 4.00954 4.61347 -1.5419
Ar -4.07767 -1.26562 0.765385
Ar -5.05552 1.40789 -2.59297
Ar 0.314968 5.12515 -0.0357262
Ar -1.017 -2.88328 -0.239438
Ar -4.36104 -4.63557 -0.998151
Ar -2.28175 -3.72495 3.06778
Ar 0.801887 -1.77182 -3.20087
Ar 2.20728 -4.68743 -0.947912
Ar 2.50453 -4.45479 -5.17527
Ar 2.22457 -0.98247 -0.00540423
Ar 5.28488 0.898127 0.0510264
Ar -3.20792 3.82791 5.50189
Ar -5.3975 5.55555 -0.412175
Ar 1.42523 -4.18412 2.63409
Ar 3.30669 -0.749661 3.95395
Ar -5.63375 1.83652 1.77374
Ar -3.46087 0.0634216 4.58827
Ar 4.97249 -3.35194 1.21256
Ar -1.30508 0.533815 -0.927669
Ar 1.6655 1.697 -2.49706
Ar -2.95662 -1.80455 -3.22887
Ar -2.58546 3.83839 -2.0614
Ar -1.54299 -6.31661 0.66877
Ar 2.70465 -0.77181 -5.87381
Ar -1.7836 2.7878 2.23099
Ar -1.16154 -5.23892 -3.06575
Ar 4.61968 -1.91073 -2.76761
Ar 0.15216 1.60745 5.45061
Ar -0.410051 -0.69938 2.57664
Ar -2.4877 6.38548 2.66785
Ar 0.379713 -2.10546 5.80998
Ar -1.22061 0.89319 -4.78354
Ar 1.13069 5.12727 3.74875
Ar -0.427292 -2.06749 -6.55255
Ar 5.54034 1.46275 -3.55575
38
Atoms. Timestep: 180000
Ar 1.6291 2.425 0.797163
Ar 3.75987 3.9561 3.64591
Ar 3.76652 4.44756 -1.95403
Ar -4.70393 -1.60992 0.385455
Ar -4.3781 2.10931 -2.45956
Ar 0.699576 6.09751 1.14754
Ar -1.22694 -2.905 0.161518
Ar -3.98658 -5.21139 0.0652033
Ar -2.16415 -3.4035 3.6381
Ar 0.330071 -1.92383 -3.23271
Ar 1.94693 -4.56332 -1.42941
Ar 2.02869 -4.73946 -5.17072
Ar 2.11469 -1.21228 -0.0602534
Ar 5.55917 0.475795 0.10638
Ar -3.58934 3.68848 4.97494
Ar -3.49796 5.56085 -0.374109
Ar 1.41654 -3.88585 2.38734
Ar 3.65276 -0.214238 3.33636
Ar -5.43909 2.08161 1.36844
Ar -3.81893 -0.201462 3.6283
Ar 5.23214 -3.09465 0.593358
Ar -1.44336 0.735301 -1.07538
Ar 2.20601 1.24633 -2.89785
Ar -3.36256 -2.23838 -2.94917
Ar -0.206221 4.13488 -2.1216
Ar -0.576276 -6.72418 0.467524
Ar 2.32642 -0.675965 -5.94803
Ar -1.9144 3.09897 1.69362
Ar -1.15836 -5.17563 -2.94532
Ar 4.11805 -1.94353 -3.02034
Ar -0.680508 1.21164 6.1096
Ar -0.245127 -0.268434 2.73008
Ar -2.60471 6.79592 2.91937
Ar 1.24453 -1.94585 5.63671
Ar -1.32856 0.825233 -4.7888
Ar 0.248879 4.36486 4.55671
Ar -1.49309 -2.85438 -6.23086
Ar 5.54025 1.53693 -3.69148
38
Atoms. Timestep: 190000
Ar 1.76468 2.25862 1.24487
Ar 2.367 5.89204 2.78803
Ar 3.55577 4.57282 -0.702054
Ar -5.03345 1.10756 -0.35821
Ar -3.05156 3.33557 -3.08188
Ar -0.135423 4.91842 -0.899682
Ar -2.34166 -1.76753 -0.0024131
Ar -4.20617 -4.92253 -0.376986
Ar -2.56747 -3.88151 3.46438
Ar 0.293651 -1.69544 -3.21488
Ar 4.01462 -4.3938 0.534115
Ar 1.60794 -5.26933 -2.55944
Ar 1.82123 -1.31561 0.243242
Ar 5.70368 2.76514 1.60899
Ar -2.67133 1.34797 5.31193
Ar -3.93852 5.27088 -0.0928913
Ar 1.21199 -4.21097 3.53018
Ar 3.69584 -0.203772 3.33807
Ar -4.79957 3.35408 3.18001
Ar -5.04401 -0.881666 3.43591
Ar 5.46415 -0.464408 -0.0136498
Ar -0.468573 1.28398 -1.89224
Ar 2.97658 1.24097 -2.55226
Ar -3.30681 -1.219 -3.32899
Ar 0.855092 3.89269 -4.2592
Ar -0.479489 -5.03222 0.371188
Ar 1.66937 -3.60377 -6.12516
Ar -1.88965 1.9841 1.24774
Ar -2.06965 -4.60229 -3.25799
Ar 4.2652 -2.36399 -3.03921
Ar -1.0542 -2.61329 6.46082
Ar -0.57888 -0.923133 3.30648
Ar -1.56888 5.82479 2.71082
Ar 1.67963 -0.598496 6.56625
Ar -0.111311 0.809626 -5.63419
Ar 0.852935 2.38684 4.78512
Ar -1.87346 -2.31835 -6.3898
Ar 3.3927 0.0360227 -6.34701
38
Atoms. Timestep: 200000
Ar 2.13557 2.12604 0.913455
Ar 1.21034 6.34996 2.56734
Ar 3.27718 4.86712 -1.09995
Ar -5.77239 -0.0877184 0.425701
Ar -2.39322 4.1181 -3.54763
Ar -0.476507 5.06 -0.497201
Ar -2.22701 -1.86209 -0.801568
Ar -5.86612 -2.76119 -2.12082
Ar -4.6664 -4.24944 0.743975
Ar 0.466861 -2.9442 -3.50416
Ar 4.47585 -3.80819 1.76409
Ar 2.51556 -4.85804 -0.943787
Ar 2.34921 -1.29502 -0.171377
Ar 5.86976 2.29912 1.90607
Ar -1.84856 1.19245 5.30249
Ar -4.27589 4.37973 -0.581381
Ar 1.76841 -3.98895 4.18539
Ar 3.78576 -0.378227 3.35595
Ar -5.24463 2.97233 2.79927
Ar -3.2809 -1.19003 2.66638
Ar 6.36399 -0.927093 0.317787
Ar 0.0801825 0.512438 -2.22505
Ar 4.34578 1.49643 -2.20823
Ar -3.65587 0.962468 -2.82845
Ar 1.4336 3.37618 -3.96495
Ar -0.445609 -3.97678 1.1168
Ar -0.506603 -2.35619 -7.03226
Ar -1.86862 1.55195 0.631713
Ar -1.58374 -6.2028 -1.80538
Ar 4.98689 -2.45102 -2.7299
Ar -1.21851 -2.56391 5.79424
Ar 0.329152 -0.362736 2.82535
Ar -1.83931 4.7288 2.77107
Ar 2.07725 -0.875432 6.52508
Ar -1.39766 1.20497 -5.8501
Ar 1.51627 2.98452 4.55397
Ar -3.12051 -2.79397 -4.34158
Ar 2.70244 -0.248608 -4.91233
38
Atoms. Timestep: 210000
Ar 0.809242 2.27631 1.80511
Ar 1.92869 5.64275 1.81316
Ar 2.90508 3.22531 -1.26093
Ar -5.79338 0.220507 0.498948
Ar -2.3346 4.46534 -3.96595
Ar -0.912161 4.65404 -0.299943
Ar -1.07443 -1.56156 -0.413265
Ar -6.58527 -1.70838 -3.05764
Ar -4.27945 -3.29719 -0.234482
Ar 1.11729 -2.07441 -3.40287
Ar 4.48574 -3.27412 2.18921
Ar 1.6955 -4.06179 0.179324
Ar 2.60848 -0.462889 -0.23724
Ar 4.72435 3.17885 1.99922
Ar -0.872944 1.11379 4.89147
Ar -4.67026 4.13684 -0.405607
Ar 1.68406 -5.07113 4.14404
Ar 4.4136 -0.217279 3.80684
Ar -4.93172 2.47909 3.01399
Ar -3.02477 -1.24857 2.98246
Ar 6.22882 0.134261 0.111731
Ar -0.0963939 1.24081 -2.2772
Ar 4.41038 0.494458 -3.49952
Ar -4.19195 1.18578 -2.94134
Ar 1.57064 3.11762 -4.88329
Ar -1.54724 -5.06629 2.0959
Ar 0.383847 -3.20746 -6.88673
Ar -2.4592 1.47597 0.508863
Ar -0.946512 -4.95827 -2.06561
Ar 4.67889 -2.95439 -1.74812
Ar -1.58669 -2.82382 5.6881
Ar 0.849083 -1.65949 2.82656
Ar -1.89945 4.36729 3.31485
Ar 1.78758 -0.995154 6.64548
Ar -1.21417 0.714311 -5.72783
Ar 2.60084 2.69071 5.33376
Ar -2.63667 -2.29528 -3.95891
Ar 2.17714 0.124427 -6.58254
38
Atoms. Timestep: 220000
Ar 1.86636 1.91247 0.826022
Ar 1.72303 5.50407 2.13836
Ar 4.53793 4.347 0.228185
Ar -6.42065 0.596489 0.706499
Ar -2.34007 3.50371 -3.19216
Ar 0.827854 4.55202 -1.46368
Ar -1.44664 -1.86072 -0.287401
Ar -4.53882 -0.662095 -5.63647
Ar -4.71493 -3.44444 0.522488
Ar 0.765026 -2.92287 -3.04774
Ar 5.60006 -3.40714 0.793766
Ar 3.06798 -5.24205 -1.23038
Ar 2.40633 -1.65822 -0.137538
Ar 3.4654 2.32596 3.83694
Ar -2.02807 -0.106322 6.157
Ar -4.80837 3.66585 -0.168112
Ar 2.14106 -4.62378 2.25217
Ar 3.59326 -1.41072 3.34518
Ar -4.10514 2.95123 3.46157
Ar -3.56316 -0.540582 2.81372
Ar 5.48315 0.6066 0.802797
Ar 0.104895 0.821106 -2.48154
Ar 3.70897 1.4988 -2.37001
Ar -3.99106 0.0582373 -1.72822
Ar 1.4241 3.51131 -4.97085
Ar -1.80875 -3.83544 3.02347
Ar -1.30737 -2.6304 -6.48946
Ar -1.79839 1.73938 0.432033
Ar -0.71998 -5.52552 -0.365752
Ar 4.75909 -1.77498 -3.16996
Ar 1.0236 -3.08577 5.52906
Ar 0.173637 -0.674642 2.81112
Ar -2.05225 5.43004 1.23835
Ar 1.65611 0.489439 6.30613
Ar -1.40403 1.25403 -5.86694
Ar -0.316837 2.79295 3.86496
Ar -3.00898 -3.68857 -3.07495
Ar 2.04766 -0.465429 -5.40866
38
Atoms. Timestep: 230000
Ar 1.48749 2.87013 0.617383
Ar 2.29632 6.25511 2.03895
Ar 4.92559 3.90891 -0.175801
Ar -7.15473 -0.774924 -0.867026
Ar -2.47456 4.02891 -2.16035
Ar 2.09949 5.90605 -1.56579
Ar -1.2725 -1.76499 0.639983
Ar -5.03408 -2.06057 -4.403
Ar -4.19234 -3.25706 -0.907469
Ar 1.94229 -4.25456 -4.06204
Ar 3.81597 -3.48871 1.95035
Ar 2.55709 -5.48384 -0.778779
Ar 2.23766 -1.67935 -1.18876
Ar 3.75631 2.57438 3.51541
Ar -1.40033 -1.31169 4.44763
Ar -5.66352 3.19423 0.511886
Ar 0.388085 -4.87326 2.04585
Ar 5.00201 -0.777153 4.41944
Ar -3.26471 1.89277 4.45071
Ar -4.61207 -0.530692 1.90429
Ar 4.92532 0.359406 0.847311
Ar -0.280716 1.06862 -2.02903
Ar 3.60233 1.3982 -2.39556
Ar -3.79699 0.26972 -1.98028
Ar 1.29739 3.41127 -4.64242
Ar -3.29417 -3.91471 2.66902
Ar -1.97097 -1.65213 -6.75819
Ar -2.03796 1.74481 0.932335
Ar -1.25978 -5.38038 -1.12206
Ar 5.63153 -3.12017 -1.50788
Ar 2.24502 -2.79786 5.32687
Ar 1.63712 -0.314647 2.56771
Ar -1.22423 5.76173 0.792891
Ar 1.35308 0.893525 6.21486
Ar -2.31887 1.59005 -5.05754
Ar -0.0368125 3.24443 3.92903
Ar -1.28064 -2.44677 -3.1624
Ar 1.37188 -0.487764 -5.05751
38
Atoms. Timestep: 240000
Ar 2.05552 2.43104 0.426254
Ar 2.85411 5.67927 2.16852
Ar 5.16349 4.30348 -0.155288
Ar -7.16727 -0.907645 -1.56669
Ar -2.73578 4.26695 -2.00383
Ar 1.03987 4.95861 -1.91997
Ar -1.54018 -1.58474 0.869572
Ar -4.85272 -2.25647 -4.21092
Ar -4.35399 -3.34834 -0.629399
Ar 2.30264 -3.91542 -3.65122
Ar 3.68735 -4.3456 3.51922
Ar 4.5735 -3.37608 -0.0939139
Ar 1.6838 -1.24831 -1.00626
Ar 4.66087 2.414 3.12687
Ar -2.00845 -0.351801 4.39091
Ar -5.14049 3.3342 0.967626
Ar 0.940389 -4.22868 0.893321
Ar 4.48345 -1.29743 5.30568
Ar -2.9312 3.60836 5.01643
Ar -5.14718 -0.503475 1.89997
Ar 5.16546 0.30728 0.143641
Ar -0.509542 1.33824 -2.15542
Ar 3.48201 2.2308 -3.11384
Ar -3.76563 0.26493 -1.36163
Ar 0.197091 3.17776 -5.21567
Ar -3.10608 -4.10574 2.82153
Ar -0.629932 -2.86032 -6.4957
Ar -1.78043 1.93833 1.08408
Ar -1.60486 -5.66011 -1.50462
Ar 4.91916 -1.28321 -3.32882
Ar 0.147736 -3.55841 4.46318
Ar 1.86854 -0.777416 2.49784
Ar -0.876862 5.36768 1.43854
Ar 1.09117 -0.335613 6.1492
Ar -2.60848 0.582107 -4.95359
Ar 0.616549 2.68071 3.83113
Ar -1.45369 -2.41606 -3.01752
Ar 1.28208 -0.521898 -4.62923
38
Atoms. Timestep: 250000
Ar 1.73423 1.12245 0.709388
Ar 1.76042 4.81427 2.90276
Ar 4.42091 3.56804 0.272767
Ar -5.5745 2.56594 0.794548
Ar -3.23329 3.60117 -2.44287
Ar 0.79086 4.23553 -1.08765
Ar -1.22594 -1.36215 0.430436
Ar -4.5586 -2.85733 -4.41603
Ar -3.70052 -3.98686 -0.815964
Ar 2.34751 -4.30162 -4.513
Ar 4.24455 -5.57063 4.20833
Ar 4.42611 -4.0706 -0.359469
Ar 1.98567 -1.81679 -1.55888
Ar 2.53152 2.58687 5.72559
Ar -0.192136 0.300557 3.5582
Ar -3.31719 5.09905 3.02736
Ar 0.111236 -4.70141 -0.0589798
Ar 4.66826 0.710084 3.4845
Ar -3.78783 1.65412 4.04962
Ar -4.6276 -1.21318 1.76735
Ar 5.22731 -0.320231 -0.107191
Ar -0.312657 1.02538 -2.27662
Ar 3.41146 1.95997 -3.00498
Ar -3.90056 -0.123246 -1.8707
Ar -0.277038 4.068 -4.60072
Ar -1.11787 -3.72658 3.6455
Ar -0.710799 -3.74496 -7.02675
Ar -1.98891 2.1653 0.746274
Ar -1.46563 -5.61248 -3.48608
Ar 4.93169 -1.26623 -4.0667
Ar 1.6257 -1.2439 6.23168
Ar 2.14918 -2.41389 1.98456
Ar -1.63241 6.70227 -0.0898697
Ar -1.69196 0.358636 7.02723
Ar -2.29513 0.685115 -5.59912
Ar -0.82657 3.71617 5.37256
Ar -1.20855 -2.21267 -3.39388
Ar 1.28106 -0.393159 -5.16319
38
Atoms. Timestep: 260000
Ar 1.73529 1.43554 0.585959
Ar 1.44296 4.21846 2.79432
Ar 4.47952 4.11315 0.0243912
Ar -5.14281 3.95306 -0.23919
Ar -2.16058 3.8426 -3.58838
Ar 0.828045 4.74539 -1.24116
Ar -1.12571 -0.842667 0.348878
Ar -4.95607 -2.6296 -4.15491
Ar -3.58013 -3.74707 -0.468767
Ar 1.57553 -4.12948 -4.12175
Ar 3.96423 -5.51498 3.07919
Ar 5.23851 -3.71352 -0.0549619
Ar 2.20573 -1.45938 -1.57011
Ar 2.0186 3.1369 6.10349
Ar -0.252688 0.862213 3.62045
Ar -3.17822 4.05257 3.70439
Ar 0.257212 -4.46761 -0.242353
Ar 4.0054 1.31615 3.58349
Ar -3.70941 0.551146 2.46369
Ar -4.71895 -3.29076 3.09374
Ar 5.4537 -0.136706 -0.170892
Ar 0.0696052 1.06047 -2.48446
Ar 3.47318 1.92951 -2.82145
Ar -3.8761 0.470807 -1.44377
Ar 1.11788 3.5224 -5.48168
Ar -1.01313 -3.05876 3.14605
Ar -1.10036 -2.67247 -6.63471
Ar -1.58835 2.70287 0.430826
Ar -1.69222 -6.50915 -2.46786
Ar 5.01593 -1.70755 -3.68137
Ar 1.68076 -1.1234 5.75156
Ar 2.43549 -1.75139 2.28558
Ar -1.98111 6.44449 0.813001