38
Atoms. Timestep: 0
Ar 1.668 1.873 0
Ar 5.651 1.903 0.003
Ar 1.878 5.656 -0.01
Ar -1.867 1.863 -0.007
Ar -5.65 1.873 -0.014
Ar -1.898 5.645 -0.014
Ar -1.857 -1.873 0
Ar -5.64 -1.903 -0.003
Ar -1.867 -5.656 0.01
Ar 1.878 -1.863 0.007
Ar 5.661 -1.873 0.014
Ar 1.909 -5.645 0.014
Ar 0.002 0.007 2.642
Ar 3.751 0.017 2.659
Ar -3.75 -0.003 2.646
Ar -0.008 3.756 2.646
Ar 0.012 -3.745 2.659
Ar 3.761 3.786 2.656
Ar -3.778 3.766 2.646
Ar -3.757 -3.773 2.663
Ar 3.781 -3.752 2.673
Ar 0.009 -0.007 -2.642
Ar 3.761 0.003 -2.646
Ar -3.74 -0.017 -2.659
Ar -0.002 3.746 -2.659
Ar 0.019 -3.756 -2.646
Ar 3.768 3.773 -2.663
Ar -3.771 3.752 -2.673
Ar -3.75 -3.786 -2.656
Ar 3.788 -3.766 -2.646
Ar 1.871 1.897 5.329
Ar -1.888 1.886 5.325
Ar -1.878 -1.873 5.332
Ar 1.881 -1.863 5.339
Ar 1.888 1.873 -5.332
Ar -1.871 1.863 -5.339
Ar -1.861 -1.897 -5.329
Ar 1.898 -1.886 -5.325
38
Atoms. Timestep: 10000
Ar 1.92866 1.86253 -0.210627
Ar 5.66225 2.55871 -0.325879
Ar 2.3024 5.5971 -0.238826
Ar -1.84198 1.84159 -0.298139
Ar -5.63008 1.8362 0.0544081
Ar -1.73951 5.64957 0.163737
Ar -1.92157 -1.86373 -0.0989848
Ar -5.98348 -1.99555 -0.00990977
Ar -2.1074 -5.63348 -0.203544
Ar 1.77842 -1.91191 -0.0308128
Ar 5.48155 -1.23025 0.132446
Ar 1.95452 -5.73096 0.00747713
Ar -0.0113198 -0.14812 2.69916
Ar 3.71925 0.26104 2.99903
Ar -3.86109 -0.157165 2.71964
Ar 0.322786 3.80252 2.74904
Ar -0.140978 -4.02978 2.65198
Ar 3.9458 4.07839 3.03198
Ar -3.46706 3.53153 3.12515
Ar -3.99866 -3.79324 2.43965
Ar 3.48415 -3.57411 2.85797
Ar 0.228009 -0.0270636 -2.60862
Ar 3.94045 0.108844 -2.88888
Ar -3.92754 -0.158463 -2.6556
Ar 0.10902 3.97912 -2.85999
Ar -0.0885151 -3.8798 -2.60373
Ar 3.9563 3.86539 -3.51014
Ar -3.95663 3.84007 -2.76862
Ar -4.04873 -3.77589 -2.67761
Ar 4.47518 -4.08491 -2.36171
Ar 1.83882 2.25313 5.63446
Ar -1.65741 1.3432 5.67599
Ar -2.16036 -2.15336 5.16602
Ar 1.68381 -1.86357 5.46898
Ar 1.77352 1.73558 -5.51957
Ar -1.93331 1.78903 -5.2449
Ar -1.90937 -1.84291 -5.23109
Ar 1.80213 -2.07831 -5.22993
38
Atoms. Timestep: 20000
Ar 1.76214 2.00327 0.0149243
Ar 5.78645 2.0082 -0.0233532
Ar 1.64579 5.76558 -0.0214747
Ar -2.06311 1.79823 0.0994274
Ar -5.64842 1.828 0.149021
Ar -2.16203 5.75301 -0.33328
Ar -1.87002 -1.97434 -0.0255407
Ar -5.53178 -1.99868 -0.0712793
Ar -1.9018 -5.68088 0.00674467
Ar 1.79414 -1.62268 -0.0536885
Ar 5.64771 -2.50762 0.312364
Ar 1.78754 -5.71174 0.179904
Ar 0.0504079 -0.0410966 2.90052
Ar 3.91588 -0.00416384 2.75385
Ar -3.6572 -0.107617 2.83655
Ar -0.0607943 3.92453 2.49634
Ar -0.0365178 -3.65745 2.7654
Ar 3.79344 3.83083 2.53798
Ar -3.92103 3.77006 2.79118
Ar -3.84201 -3.90666 3.03309
Ar 3.4997 -3.7511 2.7736
Ar -0.0778737 0.161972 -2.62052
Ar 3.71359 -0.0211751 -2.59778
Ar -3.73422 -0.180674 -2.82059
Ar -0.0398136 3.70628 -2.81481
Ar 5.78488e-06 -3.99458 -2.87458
Ar 3.83286 3.92434 -2.42176
Ar -3.78121 3.64742 -2.99685
Ar -3.91698 -3.99258 -2.93208
Ar 3.70263 -3.76047 -2.87268
Ar 2.2195 2.36444 5.5024
Ar -1.92897 1.98401 5.48592
Ar -1.69104 -1.97015 5.82373
Ar 2.16945 -1.98684 5.52779
Ar 2.06164 2.14752 -5.5447
Ar -1.62926 2.01571 -5.59305
Ar -1.85388 -1.84212 -5.6782
Ar 1.96708 -1.91978 -5.69452
38
Atoms. Timestep: 30000
Ar 1.85953 1.90697 -0.104855
Ar 5.3668 1.7043 -0.139595
Ar 2.18402 6.18579 -0.342589
Ar -2.01393 1.98832 0.0647604
Ar -5.88737 1.70837 -0.0144948
Ar -1.88963 5.84782 -0.102182
Ar -2.14119 -1.7602 -0.158653
Ar -5.79762 -2.47116 0.305475
Ar -2.03216 -5.64852 0.00184764
Ar 1.68094 -1.62632 -0.0611683
Ar 5.66574 -2.10449 0.252718
Ar 2.28639 -6.2443 0.51274
Ar 0.0298303 0.0204336 2.77649
Ar 3.60165 0.122802 2.7103
Ar -3.6858 -0.306321 2.5971
Ar 0.154276 3.99376 2.57898
Ar 0.0748692 -3.90011 2.39236
Ar 4.06106 3.83742 2.7699
Ar -3.71288 3.94136 2.57517
Ar -3.83507 -4.17519 2.78111
Ar 3.62231 -3.8576 2.91351
Ar 0.0862166 0.337833 -2.86073
Ar 3.84977 -0.141343 -2.8999
Ar -3.94748 0.000352714 -2.73527
Ar 0.0362564 3.84849 -2.62414
Ar 0.0746344 -3.81931 -2.6534
Ar 3.95425 3.85617 -2.75697
Ar -4.13911 3.93893 -2.62135
Ar -4.07885 -3.87586 -2.69292
Ar 3.79584 -3.88821 -2.34807
Ar 1.8936 2.16871 5.52503
Ar -1.94726 1.84535 5.37977
Ar -1.76655 -1.93502 5.15045
Ar 2.25044 -1.54934 5.85823
Ar 2.06642 1.83921 -5.73521
Ar -2.08353 2.09852 -5.30404
Ar -1.68482 -1.81792 -5.5279
Ar 2.05041 -2.06871 -5.46248
38
Atoms. Timestep: 40000
Ar 1.93449 2.1537 -0.109377
Ar 5.9507 1.94445 -0.313713
Ar 2.14346 5.87004 -0.0560433
Ar -1.91318 1.93338 -0.155613
Ar -5.83675 1.76833 -0.0314192
Ar -1.68919 5.54216 0.0796094
Ar -1.57453 -2.09922 0.19479
Ar -5.4968 -2.08587 -0.149729
Ar -2.18153 -5.79229 0.136215
Ar 2.07449 -2.17515 0.134273
Ar 5.72113 -1.82251 0.0685098
Ar 1.42606 -5.69346 -0.242296
Ar -0.170883 0.0598163 2.75446
Ar 3.7254 0.17902 2.81544
Ar -3.99109 -0.0722723 2.50985
Ar 0.158156 3.75317 2.68479
Ar 0.0602537 -4.12094 2.85474
Ar 4.16157 3.88492 2.32508
Ar -3.97497 4.1064 2.59048
Ar -3.87199 -3.61739 2.89861
Ar 3.83009 -3.74924 2.8502
Ar -0.206106 -0.115524 -2.66367
Ar 3.68381 -0.20388 -2.3329
Ar -3.92377 0.0417275 -2.6485
Ar -0.180555 4.05758 -2.94801
Ar 0.275179 -3.697 -3.0084
Ar 3.95035 3.76272 -2.68862
Ar -4.13626 3.96191 -2.62498
Ar -3.53407 -3.56634 -2.52785
Ar 4.05761 -3.97451 -2.70803
Ar 1.60835 1.86419 5.49497
Ar -2.39974 1.93967 5.07436
Ar -1.79348 -1.98062 5.65858
Ar 2.00107 -1.79869 5.50008
Ar 1.85875 1.73835 -5.07811
Ar -2.24862 1.87244 -5.22965
Ar -1.96105 -2.08517 -5.47289
Ar 2.46565 -1.78289 -5.63522
38
Atoms. Timestep: 50000
Ar 2.09229 1.6752 -0.0895829
Ar 5.77162 1.78348 -0.106544
Ar 2.54846 5.6513 -0.215544
Ar -1.72723 1.83322 -0.00323565
Ar -6.30218 1.31061 -0.0199483
Ar -1.34583 6.03805 -0.102908
Ar -1.93186 -1.81307 0.0901883
Ar -5.52129 -2.57304 -0.0489054
Ar -1.9126 -5.48963 -0.234995
Ar 1.90565 -1.79422 0.270946
Ar 5.55162 -1.88781 0.18422
Ar 2.07984 -5.83541 0.251
Ar 0.0162256 -0.0506339 2.70077
Ar 3.95397 0.152367 2.9467
Ar -3.86869 -0.0626019 2.43376
Ar 0.101101 3.71753 2.42302
Ar 0.0398007 -3.8958 2.64262
Ar 3.80892 3.80633 2.86629
Ar -4.21302 3.44011 2.00553
Ar -3.71724 -3.70007 2.84615
Ar 3.57797 -3.66611 2.8311
Ar 0.0818578 0.0422191 -2.58233
Ar 3.83717 -0.110728 -2.81727
Ar -3.84236 0.108364 -2.67051
Ar 0.155835 3.86779 -2.73159
Ar 0.303349 -3.48528 -2.5132
Ar 3.82327 3.3702 -2.87379
Ar -4.22223 3.91788 -1.72363
Ar -3.5308 -3.53087 -3.11114
Ar 3.72861 -3.76181 -2.38057
Ar 1.90169 1.84184 5.57038
Ar -2.06629 2.18683 4.93213
Ar -2.02804 -1.37205 5.2273
Ar 1.79977 -1.84267 5.48697
Ar 1.59935 1.45066 -5.44058
Ar -2.65957 2.47976 -5.06512
Ar -1.6312 -1.3851 -5.36949
Ar 1.84405 -2.41582 -5.60817
38
Atoms. Timestep: 60000
Ar 1.92143 1.49109 -0.0124607
Ar 5.63782 1.83037 -0.273879
Ar 1.68178 6.23907 -0.089115
Ar -1.77945 1.79637 -0.00411155
Ar -5.42588 1.83723 -0.0536265
Ar -2.16051 5.94861 0.0035282
Ar -2.01672 -1.77443 -0.217393
Ar -5.62881 -2.18175 -0.293858
Ar -2.14575 -5.79844 -0.0145117
Ar 1.80506 -2.07202 0.0805206
Ar 6.00155 -1.92891 0.0207614
Ar 1.75354 -5.93704 0.0775259
Ar 0.0492471 0.00241475 2.63631
Ar 3.91783 -0.0591656 2.62538
Ar -3.78223 0.159487 2.78589
Ar -0.0852479 3.67551 2.41215
Ar -0.251484 -3.9727 2.76955
Ar 3.65124 3.91752 2.14224
Ar -3.69115 3.78888 2.65131
Ar -4.02064 -3.83325 2.7732
Ar 3.85242 -3.8873 2.53378
Ar 0.0665956 -0.0279302 -2.7136
Ar 3.78673 -0.312752 -2.53216
Ar -4.0234 0.323069 -2.9664
Ar 0.134194 3.71944 -2.25624
Ar -0.0485513 -3.70347 -2.47617
Ar 3.76389 3.98043 -2.30666
Ar -3.76294 4.00397 -2.43524
Ar -3.77964 -4.307 -2.83016
Ar 3.83446 -4.12419 -2.52287
Ar 2.20845 2.22615 5.10758
Ar -1.66149 2.04787 5.36454
Ar -1.8956 -1.88883 5.56556
Ar 1.87869 -1.43466 5.43543
Ar 2.15402 2.30847 -5.07498
Ar -1.67839 1.95093 -5.19494
Ar -2.16452 -1.82185 -5.34272
Ar 1.90547 -2.18019 -5.37415
38
Atoms. Timestep: 70000
Ar 1.85034 1.81185 -0.0399977
Ar 5.55663 1.91347 -0.0795722
Ar 2.26556 5.48015 -0.27343
Ar -1.90325 1.90194 0.30395
Ar -5.98096 1.9895 0.171288
Ar -1.44244 5.85782 -0.473843
Ar -1.80139 -1.94385 -0.0908881
Ar -5.64873 -1.69125 0.108445
Ar -1.93778 -5.98436 -0.109047
Ar 1.80407 -1.88478 0.127942
Ar 5.57376 -1.77556 0.18131
Ar 2.08448 -5.51531 -0.0308304
Ar 0.0602809 -0.0990865 2.78265
Ar 3.57024 0.233129 2.92145
Ar -3.60673 -0.330294 2.70964
Ar -0.000659702 3.7495 2.76617
Ar 0.215534 -4.00271 2.53539
Ar 3.64407 3.88083 2.77137
Ar -3.78246 3.6407 2.84425
Ar -3.79033 -3.92888 2.3446
Ar 3.93703 -3.59996 3.01272
Ar -0.111552 0.0581936 -2.76861
Ar 3.41905 -0.174141 -2.59104
Ar -3.73436 -0.0824573 -2.60353
Ar 0.22555 3.68205 -2.87594
Ar -0.0135933 -3.91425 -2.64115
Ar 4.06433 3.68189 -3.28197
Ar -3.77929 3.7586 -2.24858
Ar -3.73835 -3.64327 -2.70298
Ar 3.6804 -3.81438 -2.81742
Ar 1.61098 2.14233 5.6218
Ar -2.07624 1.74547 5.40065
Ar -1.84164 -2.03014 5.29325
Ar 1.89809 -1.58588 5.7135
Ar 1.83635 1.83446 -5.73213
Ar -1.97276 2.32794 -5.3855
Ar -1.94902 -1.65176 -5.50945
Ar 1.8168 -2.03649 -5.35448
38
Atoms. Timestep: 80000
Ar 1.91465 1.97153 -0.121894
Ar 5.48093 2.11185 0.00900142
Ar 1.81532 5.60299 -0.0771512
Ar -1.84953 1.88153 -0.119389
Ar -5.67042 1.77955 0.0484259
Ar -2.02462 5.58731 -0.092822
Ar -1.81525 -1.93434 0.00758608
Ar -5.72369 -2.04484 -0.0823468
Ar -2.10121 -5.70903 -0.284692
Ar 2.06667 -1.93764 0.100547
Ar 5.83617 -2.07335 0.159901
Ar 1.68607 -5.83343 -0.104255
Ar 0.121408 0.0735017 2.5914
Ar 3.78735 -0.0268659 2.7531
Ar -3.6941 0.058472 2.61157
Ar -0.167056 3.88007 2.63748
Ar 0.201205 -3.78499 2.57272
Ar 3.55318 3.93201 2.86415
Ar -3.81577 3.80947 2.60671
Ar -3.78055 -3.60127 2.80376
Ar 3.91464 -4.0619 2.5693
Ar 0.0415587 0.0413738 -2.62902
Ar 3.81458 -0.0366202 -2.58397
Ar -3.90434 0.0704243 -2.59183
Ar 0.0882025 3.78578 -2.79988
Ar -0.00783987 -3.73169 -2.61054
Ar 3.8059 3.92493 -2.95261
Ar -4.03279 3.81226 -2.69255
Ar -3.88358 -3.80527 -2.78501
Ar 3.84363 -3.72252 -2.47009
Ar 2.00115 1.72276 5.51074
Ar -1.58501 2.05796 5.47021
Ar -1.90822 -1.80563 5.27846
Ar 1.91205 -2.04611 5.3708
Ar 1.93492 1.84154 -5.26177
Ar -1.95694 1.96496 -5.33811
Ar -1.85176 -1.6665 -5.16682
Ar 1.9551 -2.08728 -5.20112
38
Atoms. Timestep: 90000
Ar 1.85315 1.93283 -0.0105376
Ar 5.6927 2.08114 -0.0330168
Ar 2.02427 5.76865 0.0079128
Ar -1.87052 1.98615 -0.074374
Ar -5.92143 2.12126 0.215533
Ar -1.69904 5.93823 -0.0697141
Ar -1.83797 -1.91929 0.105131
Ar -6.05961 -1.84374 -0.0441366
Ar -1.73481 -5.95677 0.0822487
Ar 2.03184 -1.77532 0.0612236
Ar 5.93383 -1.84779 0.0911162
Ar 2.16437 -5.64441 0.0711066
Ar -0.0291022 0.0928333 2.55492
Ar 3.89601 -0.0234537 2.87108
Ar -3.86694 0.0913446 2.44518
Ar -0.0747719 3.84297 2.65889
Ar 0.169076 -3.95265 2.55648
Ar 3.80593 3.75549 2.8501
Ar -3.867 4.12883 2.33678
Ar -3.85932 -4.01671 2.48306
Ar 3.97037 -3.91152 2.74591
Ar -0.0421433 -0.00182421 -2.65301
Ar 3.75905 0.00293909 -2.64102
Ar -3.85454 -0.197263 -2.44323
Ar 0.123765 3.82543 -2.56614
Ar 0.122964 -3.96688 -2.63231
Ar 3.91741 3.7806 -2.54168
Ar -3.8064 3.84051 -2.51646
Ar -3.80547 -3.83412 -2.44498
Ar 3.82476 -3.7481 -2.8179
Ar 1.57983 1.79405 5.20163
Ar -2.07888 1.98019 5.03009
Ar -1.79732 -1.86661 5.08817
Ar 1.96197 -2.0169 5.3688
Ar 1.84644 1.78928 -5.36583
Ar -2.14693 1.74767 -5.09782
Ar -1.98579 -2.03618 -5.32391
Ar 1.66227 -1.93987 -5.5493
38
Atoms. Timestep: 100000
Ar 1.87934 1.99954 -0.00233158
Ar 5.64204 2.20585 -0.0343008
Ar 1.91922 5.68379 -0.18328
Ar -1.93866 1.89924 -0.0736696
Ar -5.63479 1.87008 0.0764396
Ar -1.97164 5.67631 0.0795938
Ar -1.95434 -1.72515 0.0802078
Ar -5.83398 -1.86464 -0.186051
Ar -1.8644 -5.76659 0.0734952
Ar 1.85051 -1.85926 0.0328838
Ar 5.71544 -1.7589 0.0624911
Ar 1.83381 -5.94989 0.05138
Ar 0.0316223 0.0747764 2.59496
Ar 3.71644 0.0810219 2.57149
Ar -3.76359 0.0322757 2.70977
Ar 0.061081 3.82574 2.62549
Ar -0.104651 -3.90189 2.65258
Ar 3.82965 3.93338 2.70579
Ar -3.62367 3.69682 2.65093
Ar -3.9931 -3.68722 2.55552
Ar 3.84952 -3.75415 2.64841
Ar -0.0781368 0.0732346 -2.50798
Ar 3.75378 0.0472719 -2.58749
Ar -3.84079 -0.0101333 -2.70828
Ar -0.105218 4.00378 -2.73336
Ar 0.10782 -3.9372 -2.57629
Ar 3.81971 3.77065 -2.77758
Ar -3.7744 3.74861 -2.70701
Ar -3.76524 -3.91018 -2.7286
Ar 3.92856 -3.83708 -2.42811
Ar 1.96675 1.85988 5.37084
Ar -1.86693 1.62276 5.315
Ar -1.86105 -2.06241 5.19428
Ar 1.9626 -1.96031 5.16459
Ar 1.59819 1.65333 -5.27178
Ar -2.01942 2.0693 -5.26704
Ar -1.57667 -1.80668 -5.30686
Ar 2.10659 -2.03498 -5.13613
38
Atoms. Timestep: 110000
Ar 1.94145 1.97128 0.0143856
Ar 5.65404 2.00768 0.0509566
Ar 1.99148 5.80417 0.0586823
Ar -1.87165 2.00482 -0.083727
Ar -5.71002 1.77644 0.0365567
Ar -1.8309 5.64066 0.0571765
Ar -1.93305 -1.89989 -0.0665366
Ar -5.73642 -2.01286 0.130987
Ar -1.9456 -5.62941 -0.0544031
Ar 1.83509 -1.86842 0.0192119
Ar 5.78054 -1.83174 -0.0582094
Ar 1.86869 -5.67727 0.025234
Ar -0.0305345 0.00057721 2.56279
Ar 3.7732 0.0599609 2.56397
Ar -3.80968 0.017478 2.71012
Ar -0.00948432 3.8088 2.65451
Ar 0.0461418 -3.78476 2.58395
Ar 3.74501 3.88034 2.77829
Ar -3.93372 3.8349 2.52681
Ar -3.71306 -3.87577 2.7357
Ar 3.93837 -3.83804 2.73474
Ar -0.0181581 -0.0622236 -2.57746
Ar 3.67931 -0.0131924 -2.55617
Ar -3.78344 -0.0961235 -2.6064
Ar 0.0346663 3.81093 -2.74811
Ar 0.0577534 -3.7264 -2.6711
Ar 3.81435 3.73949 -2.77095
Ar -3.8099 3.80174 -2.71391
Ar -3.73692 -3.74485 -2.82307
Ar 3.7896 -3.78881 -2.58203
Ar 1.87757 1.85989 5.39335
Ar -1.93382 1.96636 5.29214
Ar -1.86555 -1.84921 5.38459
Ar 1.86324 -1.99576 5.25562
Ar 1.74916 1.69231 -5.26216
Ar -1.93261 1.86164 -5.25386
Ar -1.79633 -1.88547 -5.34448
Ar 1.96317 -1.95825 -5.3972
38
Atoms. Timestep: 120000
Ar 1.70461 1.9536 -0.0655439
Ar 5.567 1.92458 -0.0816056
Ar 1.97082 5.70548 -0.14601
Ar -1.94808 1.91176 0.0365349
Ar -5.68817 1.95894 -0.017539
Ar -1.79727 5.64839 0.00878489
Ar -1.85824 -1.95322 0.117626
Ar -5.60794 -1.90842 0.000971127
Ar -1.85243 -5.69609 -0.218692
Ar 1.95883 -1.88521 0.00774244
Ar 5.73731 -1.92434 -0.0146071
Ar 1.90061 -5.626 0.139304
Ar -0.00319861 -0.0153236 2.66591
Ar 3.75104 0.0682839 2.70609
Ar -3.82731 -0.0812135 2.74643
Ar 0.0152154 3.7754 2.73825
Ar 0.020068 -3.81027 2.65486
Ar 3.80512 3.82705 2.5841
Ar -3.83632 3.76231 2.61163
Ar -3.90985 -3.863 2.69975
Ar 3.78704 -3.69549 2.76466
Ar -0.023128 -0.100488 -2.57748
Ar 3.77881 -0.0231474 -2.72928
Ar -3.73179 0.0642552 -2.70882
Ar -0.0444844 3.80263 -2.67617
Ar 0.118606 -3.8403 -2.65033
Ar 3.66379 3.75631 -2.74663
Ar -3.73107 3.8869 -2.57143
Ar -3.6372 -3.72127 -2.70238
Ar 3.78759 -3.76667 -2.59977
Ar 1.78191 1.87713 5.4198
Ar -1.89977 1.90414 5.27487
Ar -1.83488 -1.889 5.4151
Ar 1.84609 -1.92151 5.36805
Ar 1.77359 1.79506 -5.28511
Ar -1.98561 1.9467 -5.31878
Ar -1.71676 -1.92534 -5.46362
Ar 1.96747 -1.9216 -5.38668
38
Atoms. Timestep: 130000
Ar 1.89617 1.92505 0.0996848
Ar 5.71768 1.95191 -0.00133693
Ar 1.98542 5.59321 -0.0324436
Ar -1.8819 1.87917 0.0538074
Ar -5.68747 1.86088 -0.0221506
Ar -1.778 5.59304 0.0607159
Ar -1.87822 -1.82912 -0.0290482
Ar -5.70166 -1.85391 0.00943964
Ar -1.93502 -5.5548 0.00773692
Ar 1.93121 -1.86011 0.0389174
Ar 5.70504 -1.757 -0.0221729
Ar 1.9025 -5.66158 0.112769
Ar -0.0213148 -0.04004 2.58426
Ar 3.77665 -0.0160213 2.74106
Ar -3.77707 0.00345088 2.65006
Ar -0.0590668 3.71581 2.66121
Ar 0.00350198 -3.719 2.61562
Ar 3.65354 3.76431 2.74156
Ar -3.80539 3.8083 2.7183
Ar -3.84789 -3.6864 2.81593
Ar 3.93741 -3.78519 2.61052
Ar 0.0209855 0.0483195 -2.52379
Ar 3.75062 0.0976437 -2.66648
Ar -3.7911 -0.0523174 -2.81605
Ar -0.0627098 3.6822 -2.66144
Ar -0.0716211 -3.82121 -2.64297
Ar 3.72129 3.83043 -2.69836
Ar -3.68932 3.72833 -2.8182
Ar -3.76148 -3.80323 -2.85928
Ar 3.77954 -3.76795 -2.67853
Ar 1.81947 1.81377 5.40201
Ar -2.01615 1.89598 5.33896
Ar -1.73771 -1.72809 5.34538
Ar 1.97863 -2.02664 5.32167
Ar 1.7142 1.83918 -5.30946
Ar -1.91794 1.78479 -5.46593
Ar -1.76604 -1.9685 -5.42166
Ar 1.8952 -1.88368 -5.26031
38
Atoms. Timestep: 140000
Ar 1.96786 1.8436 0.013271
Ar 5.65205 1.91283 0.00349538
Ar 1.96264 5.63356 -0.0940305
Ar -1.88737 1.88004 -0.0539508
Ar -5.77977 1.78273 0.0205818
Ar -1.8519 5.80231 0.00387291
Ar -1.88183 -1.89898 -0.0495323
Ar -5.66444 -2.06555 -0.0456453
Ar -1.92315 -5.51061 -0.041775
Ar 1.88841 -1.94457 0.0965685
Ar 5.70047 -1.85739 0.0547144
Ar 1.79982 -5.74879 -0.0206305
Ar -0.0512123 0.038201 2.63835
Ar 3.71026 -0.0266633 2.59257
Ar -3.71549 0.0508182 2.59729
Ar -0.030928 3.78435 2.65789
Ar -0.0386521 -3.69606 2.77008
Ar 3.72435 3.82485 2.67825
Ar -3.79518 3.78822 2.54682
Ar -3.73143 -3.83997 2.69396
Ar 3.88683 -3.85928 2.56011
Ar 0.0135297 -0.011668 -2.54603
Ar 3.87554 -0.034648 -2.58028
Ar -3.6782 -0.0537397 -2.60827
Ar -0.0514747 3.84884 -2.70852
Ar 0.117227 -3.75338 -2.68804
Ar 3.76099 3.75693 -2.79518
Ar -3.91149 3.79622 -2.50563
Ar -3.75738 -3.75965 -2.85183
Ar 3.82816 -3.75331 -2.4882
Ar 1.74642 1.82706 5.32371
Ar -1.99535 1.94794 5.4238
Ar -1.88993 -1.69483 5.41539
Ar 1.97415 -1.93424 5.30621
Ar 1.74007 1.68483 -5.29425
Ar -1.9403 1.97249 -5.28335
Ar -1.77534 -1.74124 -5.35051
Ar 2.00406 -1.99022 -5.3913
38
Atoms. Timestep: 150000
Ar 1.82694 1.86232 -0.0647025
Ar 5.64186 1.91651 0.202176
Ar 2.09228 5.72095 0.0596554
Ar -1.88574 1.92393 0.0361065
Ar -5.66672 1.71013 -0.07492
Ar -1.85174 5.74467 0.0175734
Ar -1.90503 -1.88754 0.00367726
Ar -5.53891 -1.9651 0.0141856
Ar -2.01544 -5.74433 0.00214964
Ar 1.85259 -1.80023 -0.0198834
Ar 5.79041 -1.8312 -0.0471551
Ar 1.85086 -5.68005 -0.0492441
Ar 0.0934763 -0.0145589 2.62403
Ar 3.7446 0.0250143 2.6842
Ar -3.87755 0.0726362 2.67159
Ar 0.0557761 3.90996 2.60498
Ar -0.0191335 -3.80176 2.62404
Ar 3.68863 3.72929 2.847
Ar -4.04407 3.8976 2.47218
Ar -3.73945 -3.8592 2.77931
Ar 3.6784 -3.71546 2.54866
Ar 0.0120148 -0.00115043 -2.69094
Ar 3.83626 0.0902144 -2.77422
Ar -3.64951 -0.0332495 -2.60739
Ar -0.0552567 3.77274 -2.63593
Ar -0.0783278 -3.76255 -2.65614
Ar 3.80389 3.78532 -2.66737
Ar -3.79826 3.76187 -2.6153
Ar -3.77883 -3.82157 -2.66809
Ar 3.77933 -3.77287 -2.50219
Ar 1.83735 1.8011 5.4267
Ar -1.86638 2.04844 5.10726
Ar -1.76637 -1.79204 5.31512
Ar 2.0063 -2.12828 5.33304
Ar 1.83367 1.84136 -5.36078
Ar -2.01508 1.9016 -5.28599
Ar -1.79398 -2.01035 -5.38185
Ar 1.92313 -1.89317 -5.27154
38
Atoms. Timestep: 160000
Ar 1.7793 1.87559 0.0223294
Ar 5.64943 2.05512 -0.0468077
Ar 1.98037 5.60831 0.0838665
Ar -1.90145 1.89143 -0.0706096
Ar -5.66892 1.70074 0.0213229
Ar -1.74249 5.83127 0.113109
Ar -1.87007 -1.85212 0.0475279
Ar -5.7001 -2.07169 -0.0190965
Ar -1.97191 -5.55091 0.0658779
Ar 1.80945 -1.83789 0.00839664
Ar 5.606 -1.76583 -0.0531715
Ar 1.79289 -5.77427 0.0327004
Ar -0.0506959 0.0720046 2.62586
Ar 3.67834 0.013705 2.59602
Ar -3.70023 -0.042598 2.62651
Ar -0.0609542 3.83694 2.71585
Ar 0.0708019 -3.75229 2.68648
Ar 3.70176 3.78788 2.7118
Ar -3.80746 3.72818 2.40739
Ar -3.78719 -3.77376 2.75266
Ar 3.84465 -3.79868 2.49614
Ar 0.00355228 0.115474 -2.70211
Ar 3.66144 -0.052144 -2.63324
Ar -3.71143 -0.0749574 -2.61951
Ar 0.000627206 3.83345 -2.64501
Ar 0.059065 -3.69602 -2.63151
Ar 3.76601 3.69803 -2.80179
Ar -3.75673 3.92684 -2.50555
Ar -3.82515 -3.75146 -2.80546
Ar 3.86941 -3.92137 -2.48302
Ar 1.78093 1.83597 5.33409
Ar -1.99549 1.91164 5.34245
Ar -1.80751 -1.88813 5.39288
Ar 1.93872 -1.88201 5.3111
Ar 1.82334 1.67416 -5.41451
Ar -1.89786 1.9579 -5.27695
Ar -1.69178 -1.83294 -5.42535
Ar 2.13334 -2.03458 -5.26066
38
Atoms. Timestep: 170000
Ar 1.83697 1.81296 -0.0239246
Ar 5.54194 1.78377 0.102566
Ar 1.85415 5.53336 -0.126368
Ar -1.91992 1.87614 -0.0636792
Ar -5.6625 1.81802 -0.0175544
Ar -1.89293 5.71908 -0.00379307
Ar -1.87834 -1.84733 0.0699633
Ar -5.54237 -1.92651 -0.186205
Ar -1.97972 -5.66487 0.124718
Ar 1.91363 -1.83735 -0.0272846
Ar 5.74814 -1.83527 0.146876
Ar 1.82757 -5.75292 -0.0934949
Ar 0.052359 0.0777732 2.7252
Ar 3.77919 -0.0667227 2.81807
Ar -3.85143 0.0514972 2.71548
Ar -0.140025 3.74612 2.60728
Ar -0.00785432 -3.74071 2.59218
Ar 3.53417 3.74559 2.56197
Ar -3.81711 3.79909 2.57757
Ar -3.76613 -3.6034 2.8864
Ar 3.82669 -3.93679 2.50017
Ar 0.077441 -0.0369455 -2.58559
Ar 3.98107 0.0967837 -2.7066
Ar -3.83456 0.0400079 -2.74131
Ar -0.0540449 3.74421 -2.68841
Ar 0.102209 -3.7307 -2.7648
Ar 3.77758 3.71018 -2.67892
Ar -3.84188 3.85451 -2.56428
Ar -3.64621 -3.99221 -2.82812
Ar 3.95576 -3.6662 -2.58459
Ar 1.72976 1.85954 5.48325
Ar -1.84813 2.06218 5.33516
Ar -1.80503 -1.69432 5.454
Ar 1.99746 -2.14238 5.35593
Ar 1.9632 1.94436 -5.40474
Ar -2.02678 1.92796 -5.30488
Ar -1.89315 -1.82433 -5.33947
Ar 1.91082 -1.90316 -5.32276
38
Atoms. Timestep: 180000
Ar 1.90758 1.81116 -0.0920723
Ar 5.60508 1.87036 -0.0619341
Ar 1.91712 5.64604 0.148295
Ar -1.83498 1.88587 0.00667524
Ar -5.59456 1.7802 -0.0559771
Ar -1.82059 5.67747 -0.0279965
Ar -1.78066 -1.89213 -0.061466
Ar -5.63727 -1.96837 -0.0198614
Ar -2.00877 -5.69314 -0.0927315
Ar 1.88705 -1.82483 0.00802591
Ar 5.71702 -1.85938 -0.0345435
Ar 1.79996 -5.59404 0.0236961
Ar 0.0414922 0.0246429 2.606
Ar 3.8572 -0.0201594 2.68152
Ar -3.71937 -0.0455951 2.58812
Ar -0.00191896 3.76838 2.73659
Ar -0.0129509 -3.70679 2.74186
Ar 3.7402 3.7158 2.73224
Ar -3.87413 3.89203 2.61704
Ar -3.84781 -3.75647 2.63329
Ar 3.7878 -3.81606 2.75445
Ar -0.0101974 0.0245618 -2.69293
Ar 3.74594 -0.0411735 -2.67462
Ar -3.74136 -0.0332304 -2.69949
Ar -0.0535713 3.81182 -2.68411
Ar 0.0800602 -3.76598 -2.66177
Ar 3.68173 3.77221 -2.76738
Ar -3.83586 3.68784 -2.59698
Ar -3.67347 -3.87461 -2.72775
Ar 3.84454 -3.85911 -2.504
Ar 1.8026 1.99898 5.40294
Ar -1.96146 1.88475 5.31156
Ar -1.85209 -1.91604 5.43825
Ar 1.86294 -1.74846 5.4276
Ar 1.82138 1.89244 -5.40847
Ar -1.94885 2.00928 -5.30904
Ar -1.83787 -1.81867 -5.37292
Ar 1.95003 -1.9186 -5.31212
38
Atoms. Timestep: 190000
Ar 1.88321 1.9179 0.029894
Ar 5.68356 2.02182 0.0217018
Ar 1.8118 5.56413 0.081113
Ar -1.85251 1.83533 0.015619
Ar -5.7676 1.89058 -0.0750562
Ar -1.95336 5.61135 0.0189692
Ar -1.87909 -1.87731 0.0606102
Ar -5.69343 -1.8665 0.0304303
Ar -1.79075 -5.60442 0.063852
Ar 1.84037 -1.89049 0.014139
Ar 5.66467 -1.81229 -0.00302206
Ar 1.93142 -5.69755 0.0048248
Ar 0.126621 0.00178513 2.70694
Ar 3.77892 0.0101121 2.59611
Ar -3.79757 0.0163042 2.56962
Ar -0.050648 3.70152 2.67878
Ar -0.032397 -3.6893 2.66292
Ar 3.72926 3.77326 2.7008
Ar -3.7402 3.69462 2.58393
Ar -3.8855 -3.82927 2.80108
Ar 3.74466 -3.75308 2.63547
Ar 0.0202834 0.0251788 -2.64274
Ar 3.73054 0.0351331 -2.58504
Ar -3.72605 -0.00430118 -2.67958
Ar 0.067186 3.76329 -2.67216
Ar -0.038771 -3.75981 -2.65423
Ar 3.8727 3.76929 -2.64033
Ar -3.80434 3.70244 -2.74275
Ar -3.73813 -3.74358 -2.65479
Ar 3.81443 -3.74652 -2.65243
Ar 1.83164 1.80411 5.33747
Ar -1.94133 1.88691 5.35019
Ar -1.88672 -1.77018 5.25975
Ar 1.9859 -1.89308 5.31964
Ar 2.02021 1.8614 -5.40938
Ar -1.74575 1.78504 -5.4512
Ar -1.97584 -1.90333 -5.3533
Ar 1.76462 -1.82949 -5.32784
38
Atoms. Timestep: 200000
Ar 1.88451 1.85007 0.0386906
Ar 5.59145 1.86546 0.0182962
Ar 1.85714 5.79853 -0.138236
Ar -1.88995 1.81513 0.0162707
Ar -5.69768 1.84442 0.00610542
Ar -1.89825 5.56256 -0.036228
Ar -1.89039 -1.89027 -0.00422441
Ar -5.59654 -2.00406 -0.0706696
Ar -1.83276 -5.67345 0.0104321
Ar 1.80648 -1.7641 0.0194581
Ar 5.53418 -1.95527 0.10186
Ar 1.87361 -5.75003 0.0188435
Ar -0.081317 -0.0271157 2.60932
Ar 3.75133 -0.065579 2.6552
Ar -3.92612 -0.014551 2.78907
Ar 0.0124895 3.83453 2.70146
Ar 0.0270972 -3.66255 2.60935
Ar 3.73593 3.92916 2.54013
Ar -3.84584 3.8729 2.69595
Ar -3.72719 -3.69069 2.68456
Ar 3.82931 -3.91329 2.70773
Ar 0.034243 -0.028502 -2.72496
Ar 3.79279 0.0427793 -2.61634
Ar -3.72185 -0.0333986 -2.72447
Ar 0.0456461 3.64551 -2.58456
Ar -0.0409482 -3.76035 -2.63395
Ar 3.76331 3.74321 -2.63139
Ar -3.86362 3.73209 -2.64959
Ar -3.72782 -3.72386 -2.72266
Ar 3.76777 -3.72487 -2.67854
Ar 1.95025 1.87263 5.21931
Ar -1.82054 1.88147 5.37958
Ar -1.83617 -1.95234 5.3666
Ar 1.83325 -1.83665 5.4278
Ar 1.90241 1.883 -5.32344
Ar -1.82657 1.9406 -5.32806
Ar -1.74146 -1.84554 -5.39249
Ar 1.97381 -1.79654 -5.3562
38
Atoms. Timestep: 210000
Ar 1.90575 1.94612 0.014568
Ar 5.69349 1.86279 -0.0247165
Ar 1.89807 5.6231 0.0542267
Ar -1.87609 1.85045 0.0619309
Ar -5.72227 2.04944 -0.0232957
Ar -1.95047 5.72249 -0.056833
Ar -1.79501 -1.91646 0.0438116
Ar -5.77375 -1.65616 0.0632436
Ar -1.76304 -5.6769 -0.149951
Ar 1.87344 -1.88361 0.0692134
Ar 5.57339 -1.83093 0.0245764
Ar 2.16722 -5.63004 -0.0206923
Ar -0.064987 -0.00329571 2.62489
Ar 3.79838 0.0177621 2.72345
Ar -3.78479 -0.0136839 2.56039
Ar -0.07178 3.80374 2.63386
Ar 0.0268169 -3.91855 2.71321
Ar 3.89512 3.78285 2.69737
Ar -3.8691 3.76969 2.71865
Ar -3.75977 -3.83902 2.48169
Ar 3.75604 -3.65501 2.77841
Ar -0.0175498 -0.0583759 -2.62396
Ar 3.71452 -0.0455184 -2.6381
Ar -3.8093 -0.0178001 -2.60817
Ar 0.00170476 3.75345 -2.64103
Ar 0.0748765 -3.73387 -2.70043
Ar 3.77018 3.72553 -2.71142
Ar -3.69899 3.73428 -2.66351
Ar -3.81036 -3.66275 -2.54662
Ar 3.93276 -3.74443 -2.75729
Ar 1.92187 1.9614 5.37074
Ar -1.98353 1.81097 5.27411
Ar -1.98562 -1.95842 5.29519
Ar 1.78799 -1.85009 5.42057
Ar 1.81297 1.87778 -5.26739
Ar -1.93647 1.73316 -5.31493
Ar -1.87826 -1.98857 -5.36396
Ar 1.94856 -1.94051 -5.51181
38
Atoms. Timestep: 220000
Ar 1.88958 1.883 0.0347073
Ar 5.78018 2.0332 0.13637
Ar 1.8744 5.68727 -0.0972149
Ar -1.8499 1.86387 -0.0813338
Ar -5.64549 1.86896 -0.0403706
Ar -1.92118 5.63093 0.038977
Ar -1.89788 -1.9061 -0.0156275
Ar -5.67887 -1.96427 0.0336231
Ar -1.87623 -5.79748 0.113012
Ar 1.9414 -1.86307 0.0352622
Ar 5.73582 -1.93094 0.0355166
Ar 1.84861 -5.53268 -0.145239
Ar -0.0222553 0.00290347 2.63264
Ar 3.9474 0.0419744 2.75062
Ar -3.88502 -0.00753196 2.60162
Ar -0.0961172 3.80204 2.62593
Ar 0.00774543 -3.65561 2.66293
Ar 3.82182 3.96937 2.57079
Ar -3.83931 3.59927 2.65623
Ar -3.83287 -3.87039 2.72803
Ar 3.79384 -3.72398 2.78326
Ar 0.0893417 -0.0256411 -2.71068
Ar 3.86707 0.0840986 -2.56669
Ar -3.79716 0.0226807 -2.69275
Ar 0.0322955 3.75263 -2.69024
Ar -0.0932608 -3.74895 -2.65518
Ar 3.8075 3.79734 -2.53621
Ar -3.71431 3.79008 -2.66857
Ar -3.86525 -3.79324 -2.72093
Ar 3.79537 -3.66314 -2.7556
Ar 1.94226 1.73795 5.37965
Ar -1.76136 1.89509 5.35161
Ar -2.0643 -1.85555 5.27632
Ar 1.73858 -1.97771 5.44148
Ar 1.93121 1.94365 -5.42521
Ar -1.84735 1.7674 -5.31734
Ar -1.95231 -1.94472 -5.34115
Ar 1.79801 -1.91173 -5.42825
38
Atoms. Timestep: 230000
Ar 1.78767 1.83659 -0.0420256
Ar 5.63649 1.90341 0.0778438
Ar 1.8126 5.71496 0.0478912
Ar -1.92909 1.96179 -0.0879544
Ar -5.54645 1.73972 -0.0636692
Ar -2.0208 5.86737 -0.0605062
Ar -1.76671 -1.8343 0.0255588
Ar -5.62115 -2.01466 0.0743506
Ar -1.96502 -5.62244 -0.0528196
Ar 1.89033 -1.90547 0.0167818
Ar 5.60235 -1.9504 0.0557149
Ar 1.85776 -5.84215 -0.0145327
Ar 0.0218379 -0.0206541 2.76417
Ar 3.74016 -0.0378734 2.70435
Ar -3.6191 -0.025249 2.67297
Ar -0.102764 3.78244 2.68493
Ar 0.0910815 -3.81077 2.56294
Ar 3.64663 3.77273 2.67766
Ar -3.89901 3.73224 2.70491
Ar -3.76959 -3.7682 2.74351
Ar 3.68234 -3.79932 2.65765
Ar 0.0429425 0.0887543 -2.76637
Ar 3.78246 -0.0694218 -2.70942
Ar -3.6212 -0.0474791 -2.66826
Ar 0.0613592 3.83276 -2.72031
Ar -0.00757927 -3.69882 -2.65587
Ar 3.75581 3.84544 -2.52421
Ar -3.79856 3.80527 -2.72117
Ar -3.79333 -3.80911 -2.74078
Ar 3.62786 -3.87257 -2.63369
Ar 1.87217 2.03031 5.39238
Ar -1.81648 1.92308 5.58997
Ar -1.79526 -2.03176 5.35596
Ar 1.88946 -1.70454 5.46012
Ar 2.09427 1.97188 -5.50498
Ar -1.8783 1.88849 -5.35506
Ar -1.85508 -2.01161 -5.48147
Ar 1.9119 -1.81947 -5.46656
38
Atoms. Timestep: 240000
Ar 1.85326 1.9234 0.0338039
Ar 5.59669 1.75847 0.0729444
Ar 1.85443 5.57805 0.0446618
Ar -1.91181 1.84398 -0.0430932
Ar -5.67298 1.88599 -0.0717331
Ar -1.95708 5.64084 0.0107373
Ar -1.83735 -1.81531 0.0432829
Ar -5.6318 -1.87731 0.0517653
Ar -1.82804 -5.59416 -0.0613874
Ar 1.90113 -1.84511 -0.0332045
Ar 5.68635 -1.98985 -0.0498017
Ar 1.93174 -5.67322 0.0808785
Ar 0.0545558 0.0425145 2.60783
Ar 3.74936 -0.0208075 2.80552
Ar -3.73057 0.00282221 2.60512
Ar -0.0432699 3.8271 2.6373
Ar 0.0128712 -3.70776 2.62568
Ar 3.83482 3.7429 2.71122
Ar -3.75658 3.80649 2.63483
Ar -3.78361 -3.82372 2.60223
Ar 3.76779 -3.71767 2.73671
Ar 0.0335563 0.0578551 -2.68479
Ar 3.71543 0.034745 -2.59622
Ar -3.80784 -0.0139418 -2.64091
Ar -0.0455367 3.78061 -2.65449
Ar -0.00310434 -3.71299 -2.69676
Ar 3.73437 3.81148 -2.6091
Ar -3.75087 3.65598 -2.71724
Ar -3.80813 -3.80328 -2.68487
Ar 3.83251 -3.82823 -2.74638
Ar 1.79235 2.03011 5.33719
Ar -1.94509 1.8062 5.42369
Ar -1.79862 -1.99285 5.31777
Ar 1.89378 -1.81792 5.4233
Ar 1.94249 1.93645 -5.3267
Ar -1.83807 1.82133 -5.47012
Ar -1.91847 -1.89176 -5.42011
Ar 1.88336 -1.86044 -5.29959
38
Atoms. Timestep: 250000
Ar 1.92813 1.82655 0.0383781
Ar 5.72935 1.89563 0.0949447
Ar 1.85371 5.66761 -0.0628327
Ar -1.84387 1.88993 -0.0300299
Ar -5.62536 1.82417 -0.147981
Ar -1.90281 5.62048 -0.00231795
Ar -1.89546 -1.84386 0.00624794
Ar -5.76549 -1.99496 -0.13682
Ar -1.80549 -5.67096 0.0429532
Ar 1.86997 -1.86975 0.0252448
Ar 5.60472 -1.86585 0.0373389
Ar 1.93076 -5.62703 -0.00342659
Ar -0.055481 -0.0277106 2.64868
Ar 3.77237 -0.0261158 2.7222
Ar -3.84233 0.01904 2.60432
Ar 0.0122052 3.81972 2.72823
Ar -0.0073467 -3.75087 2.64458
Ar 3.68121 3.83479 2.63968
Ar -3.70813 3.76135 2.63485
Ar -3.76808 -3.70992 2.57016
Ar 3.82377 -3.85205 2.66696
Ar 0.0489167 0.0471178 -2.64876
Ar 3.83355 0.0573246 -2.71804
Ar -3.77354 -0.0534581 -2.6254
Ar 0.0303216 3.73588 -2.67379
Ar 0.0201558 -3.71009 -2.61483
Ar 3.79278 3.81299 -2.58612
Ar -3.7502 3.81778 -2.71613
Ar -3.72766 -3.7794 -2.56135
Ar 3.7124 -3.7356 -2.64267
Ar 1.80058 1.80986 5.35591
Ar -1.96319 1.85952 5.38634
Ar -1.8522 -1.94789 5.29444
Ar 1.96552 -1.89132 5.31098
Ar 1.8844 1.98391 -5.37333
Ar -1.86646 1.83171 -5.36242
Ar -1.98727 -1.98148 -5.28528
Ar 1.84756 -1.77603 -5.26088
38
Atoms. Timestep: 260000
Ar 1.88433 1.88021 -0.0225292
Ar 5.62968 1.83717 -0.0372584
Ar 1.79694 5.77125 -0.0558548
Ar -1.89387 1.83613 0.0495142
Ar -5.6529 1.90705 -0.0256351
Ar -1.93282 5.56208 0.0734209
Ar -1.80948 -1.89841 -0.00666214
Ar -5.54115 -1.84849 -0.0713327
Ar -1.88957 -5.71192 -0.0754089
Ar 1.87928 -1.79338 0.0255083
Ar 5.69729 -1.87154 0.0298157
Ar 1.87502 -5.70524 0.0531042
Ar -0.0155434 -0.00983523 2.72684
Ar 3.76076 0.0190666 2.64121
Ar -3.78145 -0.0455677 2.6596
Ar 0.0430135 3.79557 2.68211
Ar -0.0506839 -3.78318 2.66551
Ar 3.76255 3.83503 2.57055
Ar -3.77092 3.69511 2.70287
Ar -3.78598 -3.81849 2.58406