38
Atoms. Timestep: 0
Ar 1.668 1.873 0
Ar 5.651 1.903 0.003
Ar 1.878 5.656 -0.01
Ar -1.867 1.863 -0.007
Ar -5.65 1.873 -0.014
Ar -1.898 5.645 -0.014
Ar -1.857 -1.873 0
Ar -5.64 -1.903 -0.003
Ar -1.867 -5.656 0.01
Ar 1.878 -1.863 0.007
Ar 5.661 -1.873 0.014
Ar 1.909 -5.645 0.014
Ar 0.002 0.007 2.642
Ar 3.751 0.017 2.659
Ar -3.75 -0.003 2.646
Ar -0.008 3.756 2.646
Ar 0.012 -3.745 2.659
Ar 3.761 3.786 2.656
Ar -3.778 3.766 2.646
Ar -3.757 -3.773 2.663
Ar 3.781 -3.752 2.673
Ar 0.009 -0.007 -2.642
Ar 3.761 0.003 -2.646
Ar -3.74 -0.017 -2.659
Ar -0.002 3.746 -2.659
Ar 0.019 -3.756 -2.646
Ar 3.768 3.773 -2.663
Ar -3.771 3.752 -2.673
Ar -3.75 -3.786 -2.656
Ar 3.788 -3.766 -2.646
Ar 1.871 1.897 5.329
Ar -1.888 1.886 5.325
Ar -1.878 -1.873 5.332
Ar 1.881 -1.863 5.339
Ar 1.888 1.873 -5.332
Ar -1.871 1.863 -5.339
Ar -1.861 -1.897 -5.329
Ar 1.898 -1.886 -5.325
38
Atoms. Timestep: 10000
Ar 1.83954 1.98823 0.0593323
Ar 5.46539 2.03565 -0.0675871
Ar 2.02492 5.63657 0.109893
Ar -1.75968 1.65441 0.0304516
Ar -5.64253 1.66339 0.0121665
Ar -1.65798 5.51413 -0.152647
Ar -1.80592 -1.93606 0.104688
Ar -5.53983 -2.2438 -0.100914
Ar -2.10033 -5.64571 0.0771155
Ar 1.92744 -1.77478 0.105172
Ar 5.52156 -1.70807 0.0367734
Ar 1.61956 -5.78472 -0.0660016
Ar 0.013083 -0.0667047 2.77504
Ar 3.78488 0.199681 2.73665
Ar -3.84887 -0.0474694 2.86697
Ar -0.0913441 3.66329 2.68396
Ar 0.00400406 -3.71611 2.78408
Ar 3.68103 3.91813 2.83667
Ar -3.86586 3.82499 2.47962
Ar -3.9202 -3.69609 2.91163
Ar 3.77121 -3.65639 2.77552
Ar -0.0338817 -0.0121067 -2.76273
Ar 3.7221 0.0553229 -2.83406
Ar -3.60815 -0.102078 -2.75031
Ar 0.333397 3.79167 -2.70196
Ar -0.161124 -3.64752 -2.67155
Ar 4.02389 3.81015 -3.12655
Ar -3.66752 3.70328 -2.59503
Ar -3.77712 -3.9011 -2.97643
Ar 3.61297 -3.85045 -2.60017
Ar 1.9607 2.04577 5.5457
Ar -1.7951 1.89853 5.30953
Ar -1.93947 -2.04248 5.41149
Ar 1.90477 -1.78359 5.5056
Ar 1.72554 1.82918 -5.62557
Ar -1.82898 2.04541 -5.28047
Ar -1.82732 -1.7021 -5.42051
Ar 1.93725 -1.95944 -5.42555
38
Atoms. Timestep: 20000
Ar 1.78411 1.76003 0.0677488
Ar 5.49544 1.91041 0.225073
Ar 2.04357 5.46666 -0.147898
Ar -1.91965 1.92524 -0.0221239
Ar -5.69418 2.01694 0.153453
Ar -1.66142 5.87647 -0.0853627
Ar -1.83665 -1.81631 -0.0916013
Ar -5.74449 -1.83367 -0.194492
Ar -1.70106 -5.7407 -0.00933502
Ar 1.99185 -1.94059 0.0208333
Ar 5.73869 -1.67919 0.031884
Ar 2.02313 -5.51151 0.000441932
Ar 0.0873414 0.0023402 2.87562
Ar 3.80096 -0.0124501 2.85299
Ar -3.9303 -0.180153 2.63266
Ar -0.0235774 3.8269 2.6332
Ar -0.0171269 -3.76808 2.6145
Ar 3.87188 3.83048 2.95917
Ar -3.9631 4.00278 2.66333
Ar -3.75468 -4.02659 2.50339
Ar 3.67517 -3.78916 2.87425
Ar 0.0248401 -0.0174724 -2.66793
Ar 3.67049 -0.113063 -2.70207
Ar -3.86114 0.00689527 -2.71252
Ar -0.103598 3.78759 -2.66754
Ar -0.0422514 -3.65932 -2.62965
Ar 3.67739 3.70799 -2.93744
Ar -3.98753 3.75103 -2.85132
Ar -3.63342 -3.66269 -2.59375
Ar 3.92483 -3.96902 -2.89561
Ar 1.86196 1.95541 5.69731
Ar -2.01227 1.92869 5.14774
Ar -1.70809 -1.92563 5.39442
Ar 2.06362 -1.94953 5.72577
Ar 1.87305 1.86694 -5.50264
Ar -1.8572 2.07513 -5.39174
Ar -1.96184 -1.99194 -5.42056
Ar 1.80728 -2.10986 -5.55021
38
Atoms. Timestep: 30000
Ar 1.90261 1.92956 0.159297
Ar 5.85744 1.82109 0.217419
Ar 1.85304 5.60694 0.245922
Ar -1.83526 1.83841 0.0389285
Ar -5.64072 1.82015 0.00725168
Ar -1.99241 5.68983 -0.428052
Ar -1.83494 -1.87087 -0.0835005
Ar -5.6333 -1.96194 -0.109737
Ar -2.0273 -5.50321 0.0762533
Ar 1.90385 -1.81593 -0.0408596
Ar 5.82532 -2.16177 0.074558
Ar 1.97039 -5.54489 0.0707417
Ar 0.00940281 0.168423 2.6229
Ar 3.79196 -0.0336927 2.66444
Ar -3.70659 0.00389384 2.70054
Ar -0.0239328 3.80129 2.73324
Ar -0.0717949 -3.52705 2.64135
Ar 4.00081 3.84461 2.98173
Ar -3.66842 3.71871 2.60096
Ar -3.90308 -3.71756 2.7791
Ar 3.89448 -3.79046 2.70028
Ar -0.139632 0.0807209 -2.78486
Ar 3.64677 0.23393 -2.61489
Ar -3.78286 -0.0397924 -2.7127
Ar 0.0918717 3.87196 -2.89468
Ar -0.077238 -3.76385 -2.59788
Ar 3.82027 3.72236 -2.3997
Ar -3.91029 3.59497 -2.90575
Ar -3.81288 -3.99371 -2.65562
Ar 3.69575 -3.62942 -2.69211
Ar 1.83255 1.77111 5.53818
Ar -1.85973 1.88028 5.48571
Ar -2.01673 -1.90469 5.33394
Ar 2.1197 -1.95147 5.37836
Ar 1.85316 1.95847 -5.61323
Ar -1.97934 1.73294 -5.64457
Ar -1.95856 -2.07382 -5.41769
Ar 1.80765 -1.80453 -5.45526
38
Atoms. Timestep: 40000
Ar 1.78024 1.78614 -0.0275056
Ar 5.63282 1.73168 -0.0215814
Ar 1.87847 5.87524 -0.288755
Ar -1.88899 1.88279 -0.0737605
Ar -5.63108 1.99367 -0.0450888
Ar -1.88138 5.69364 0.104772
Ar -1.91408 -1.96273 -0.0054208
Ar -5.69575 -1.71386 0.0797554
Ar -2.07324 -5.79308 -0.29402
Ar 1.94115 -1.946 0.174634
Ar 5.69135 -1.94784 -0.0792477
Ar 1.72376 -5.79008 -0.0175266
Ar 0.0751659 0.0426433 2.84616
Ar 3.66731 0.237425 3.00373
Ar -3.63341 -0.0764177 2.63786
Ar 0.0799467 3.68156 2.692
Ar 0.242389 -3.77987 2.73879
Ar 3.76532 3.84191 2.42718
Ar -3.82047 3.7573 2.62551
Ar -3.60617 -3.88616 2.52518
Ar 3.84375 -3.50763 2.74045
Ar 0.102579 -0.0152868 -2.62958
Ar 3.70268 -0.224303 -2.65408
Ar -3.71392 -0.00471191 -2.63972
Ar 0.00366986 3.84342 -2.59813
Ar -0.0526397 -3.71185 -2.69392
Ar 3.81742 3.71361 -2.74778
Ar -4.00932 3.92639 -2.73627
Ar -3.90369 -3.90528 -2.71981
Ar 3.6978 -4.00324 -2.65905
Ar 1.82306 2.24016 5.49339
Ar -1.8093 1.79969 5.29432
Ar -1.81231 -2.19257 5.21586
Ar 1.78192 -1.6344 5.61249
Ar 1.87317 1.88787 -5.30367
Ar -1.8324 1.91461 -5.23062
Ar -1.93798 -1.77817 -5.29732
Ar 2.09417 -1.97528 -5.44924
38
Atoms. Timestep: 50000
Ar 1.94126 1.88751 0.0149945
Ar 5.64558 2.16206 0.248464
Ar 1.99769 5.67563 0.0201279
Ar -1.79033 1.77971 -0.000109927
Ar -5.7178 1.57073 0.102084
Ar -1.65524 5.60717 -0.027349
Ar -1.92095 -1.88216 -0.0647288
Ar -5.5386 -2.10612 0.0185438
Ar -2.20495 -5.55491 0.164739
Ar 1.85306 -1.80771 -0.00708416
Ar 5.69262 -1.63753 0.091943
Ar 1.54992 -5.7375 -0.103733
Ar 0.0868042 -0.0486222 2.66933
Ar 3.75834 0.122981 2.62772
Ar -3.74024 -0.0457644 2.63706
Ar 0.0461684 3.6941 2.59445
Ar -0.0899499 -3.8222 2.72262
Ar 3.61945 3.84173 2.73037
Ar -3.85608 3.74299 2.36265
Ar -3.87665 -3.73502 2.99071
Ar 3.65545 -3.95565 2.35172
Ar 0.121745 0.00335266 -2.71671
Ar 3.83716 -0.0133298 -2.59695
Ar -3.81361 -0.163109 -2.68155
Ar 0.163418 3.71718 -2.61433
Ar -0.102559 -3.74675 -2.71753
Ar 3.84982 3.8881 -2.59664
Ar -3.6911 3.54509 -2.53635
Ar -3.93802 -3.93747 -2.75804
Ar 3.91784 -3.70918 -2.52725
Ar 1.88585 1.86828 5.33835
Ar -1.93954 2.22118 5.1239
Ar -1.91281 -1.49826 5.4511
Ar 2.03103 -1.97278 5.45515
Ar 1.93001 1.83765 -5.34163
Ar -1.8384 2.02532 -5.54352
Ar -1.92054 -1.83362 -5.37134
Ar 1.96616 -1.98207 -5.5112
38
Atoms. Timestep: 60000
Ar 2.00358 1.85513 0.0755893
Ar 5.72735 2.08966 0.140495
Ar 2.02397 5.66684 0.209227
Ar -1.8421 1.88429 -0.120456
Ar -5.54428 1.99705 -0.22044
Ar -1.75189 5.82121 -0.0407386
Ar -1.97123 -1.81372 0.174577
Ar -5.64919 -1.55966 0.061944
Ar -1.83613 -6.07602 0.216475
Ar 1.76745 -1.80882 -0.0515209
Ar 5.89167 -1.83315 -0.0465484
Ar 1.79522 -5.57398 -0.0374238
Ar 0.115823 0.0856223 2.5617
Ar 3.84316 0.00338539 2.62205
Ar -3.72529 0.00887581 2.7549
Ar -0.165854 3.74047 2.79123
Ar 0.0192026 -3.71254 2.49124
Ar 3.72829 3.78768 2.66236
Ar -3.7983 3.75046 2.49565
Ar -3.84253 -3.9756 2.74124
Ar 3.87889 -3.80903 2.59039
Ar -0.129444 0.00364152 -2.66584
Ar 3.87989 0.0661665 -2.59127
Ar -3.8605 -0.111111 -2.92381
Ar 0.103237 3.77226 -2.61366
Ar -0.217348 -3.83411 -2.64045
Ar 3.80121 3.91231 -2.54774
Ar -3.55682 3.70845 -2.69856
Ar -3.96569 -3.95871 -2.13327
Ar 3.6544 -3.74795 -2.59105
Ar 1.97763 1.91014 5.42464
Ar -2.06463 1.8243 5.27041
Ar -1.88591 -1.87457 5.16865
Ar 1.73243 -1.73912 5.21026
Ar 2.09113 2.09303 -5.34142
Ar -1.67152 1.42897 -5.72582
Ar -2.23201 -2.12724 -5.42914
Ar 1.6781 -1.85364 -5.24387
38
Atoms. Timestep: 70000
Ar 1.88858 2.05723 0.0416344
Ar 5.87095 1.90653 0.0255614
Ar 1.63587 5.72206 0.0174625
Ar -2.03737 1.87032 0.0707512
Ar -5.58661 1.91788 -0.210192
Ar -2.01672 5.6073 -0.153999
Ar -1.96887 -1.99832 0.169359
Ar -5.89091 -1.87001 -0.0270356
Ar -2.17546 -5.8519 0.138757
Ar 1.71198 -1.82866 0.25004
Ar 6.16374 -1.93153 0.252734
Ar 1.76039 -5.75778 -0.242744
Ar -0.077583 0.140866 2.74173
Ar 4.03975 -0.0727924 2.66784
Ar -3.86317 0.106858 2.71748
Ar -0.0707122 3.80898 2.74778
Ar -0.0854763 -3.90766 2.78472
Ar 3.68866 3.80041 2.63342
Ar -3.89831 3.96621 2.74365
Ar -4.13605 -3.68827 2.95759
Ar 3.83343 -4.01455 2.46876
Ar 0.0910924 -0.0359713 -2.75878
Ar 3.76934 0.0415133 -2.5373
Ar -3.7016 -0.0584194 -2.81003
Ar -0.0971806 3.71347 -2.7184
Ar -0.0912886 -3.72762 -2.56072
Ar 3.69539 3.6667 -2.754
Ar -3.80096 3.7068 -2.88344
Ar -3.95148 -3.92183 -2.70454
Ar 4.00718 -3.80518 -2.34208
Ar 2.12569 1.85307 5.39206
Ar -1.79222 2.02425 5.38173
Ar -1.86282 -1.93419 5.49294
Ar 2.09697 -1.8051 5.1746
Ar 1.86995 1.90805 -5.44392
Ar -1.81399 2.29753 -5.85653
Ar -1.83784 -1.92407 -5.37693
Ar 2.50964 -1.98115 -5.48996
38
Atoms. Timestep: 80000
Ar 1.74932 1.71993 -0.173122
Ar 5.47892 2.39729 0.395883
Ar 2.45455 5.5054 0.0786351
Ar -1.8768 1.5802 -0.186328
Ar -5.72686 2.48715 -0.11705
Ar -1.71259 5.57293 -0.0762731
Ar -2.07761 -1.94732 -0.213277
Ar -5.92846 -1.60002 -0.349082
Ar -1.66343 -6.04453 0.126017
Ar 1.89979 -2.16799 0.0619316
Ar 5.49853 -1.5967 0.270434
Ar 2.07739 -5.87857 0.0673216
Ar -0.0821692 -0.106416 2.42911
Ar 3.80814 0.1227 2.87731
Ar -3.64218 0.0468154 2.68936
Ar 0.205241 3.58725 2.44795
Ar -0.0740376 -3.82721 2.83744
Ar 3.82614 3.97645 3.30942
Ar -3.46202 3.54616 2.51242
Ar -4.04762 -3.68898 2.69543
Ar 3.73195 -3.69184 2.93112
Ar 0.0203802 -0.146655 -2.72625
Ar 3.99612 0.346512 -2.83285
Ar -3.89971 -0.00360502 -2.75007
Ar 0.144037 3.55984 -2.6571
Ar -0.15099 -4.13195 -2.61201
Ar 4.31877 4.23716 -2.61533
Ar -3.63584 3.73854 -2.96685
Ar -4.18043 -4.20543 -2.47646
Ar 3.32674 -3.21464 -3.01927
Ar 1.71324 1.90724 5.43264
Ar -1.84909 2.10867 5.33058
Ar -1.67689 -1.82269 5.40278
Ar 1.93291 -1.74217 5.64809
Ar 2.01164 1.90356 -5.56843
Ar -1.71657 1.47949 -5.45442
Ar -2.18669 -2.28608 -4.95235
Ar 1.39814 -1.7195 -5.79736
38
Atoms. Timestep: 90000
Ar 1.71458 2.01767 -0.0405733
Ar 5.63307 2.12627 0.0850725
Ar 1.93077 5.79014 0.208922
Ar -1.90127 1.80838 0.090603
Ar -6.01063 1.9988 -0.17898
Ar -1.67249 6.06611 -0.0534972
Ar -1.92091 -2.10141 -0.0822652
Ar -6.13618 -2.2652 0.146101
Ar -2.19773 -5.90676 0.497323
Ar 2.10266 -1.76549 -0.00967518
Ar 5.94769 -1.92811 -0.340711
Ar 1.94318 -5.70539 -0.160729
Ar 0.0445284 -0.113524 2.58927
Ar 3.85005 -0.141489 2.71455
Ar -3.68732 0.132375 2.58336
Ar -0.0402301 3.85657 2.47482
Ar -0.233901 -3.71851 2.84432
Ar 3.85185 3.74697 3.07276
Ar -3.69617 3.96394 2.595
Ar -4.11884 -3.79218 3.04296
Ar 3.57133 -4.04014 2.78669
Ar 0.192607 0.0385053 -2.73664
Ar 3.72428 -0.0774223 -2.85932
Ar -3.48701 -0.0886601 -2.71581
Ar 0.165906 3.95859 -2.58834
Ar -0.0262227 -3.67548 -2.64279
Ar 3.66656 4.50008 -2.81435
Ar -3.79031 3.62719 -2.92882
Ar -3.84455 -3.8637 -2.54282
Ar 4.10253 -3.86192 -2.88875
Ar 2.08143 1.73274 5.44318
Ar -1.83694 2.04891 5.30675
Ar -1.85159 -1.78707 5.61836
Ar 1.76799 -1.98272 5.61253
Ar 2.22327 1.85402 -5.59934
Ar -1.52353 1.6543 -5.77995
Ar -2.1231 -2.26656 -5.29095
Ar 1.58665 -1.83883 -5.45824
38
Atoms. Timestep: 100000
Ar 2.13691 1.8318 -0.0334014
Ar 5.80184 2.02235 0.0296706
Ar 1.79658 5.61238 -0.0884045
Ar -1.72354 1.87183 -0.0108394
Ar -6.02131 2.05947 -0.0558705
Ar -2.01108 5.81271 -5.66989e-05
Ar -2.09525 -1.76665 -0.251954
Ar -5.9352 -1.70717 0.2438
Ar -2.06133 -6.17038 0.481317
Ar 1.78009 -1.93128 -0.081963
Ar 5.52688 -1.88878 0.053154
Ar 2.16101 -5.72185 -0.00457305
Ar 0.101018 -0.208999 2.63446
Ar 3.98046 0.0748321 2.88323
Ar -3.54096 -0.0432443 2.66855
Ar -0.0159576 3.70416 2.77591
Ar -0.0500732 -3.9124 2.58045
Ar 4.02473 3.89224 2.47679
Ar -3.75784 3.68424 2.70163
Ar -3.85064 -3.62687 2.80998
Ar 3.66215 -3.76459 3.0185
Ar -0.138889 0.0801504 -2.78754
Ar 3.9452 0.0390184 -2.82118
Ar -3.88699 -0.044004 -2.813
Ar 0.134651 3.71481 -2.75829
Ar -0.232315 -3.84861 -2.60505
Ar 4.08475 4.07076 -2.59281
Ar -3.5135 3.60898 -2.58744
Ar -4.18566 -3.63779 -2.49048
Ar 3.59211 -3.66686 -2.81513
Ar 2.00762 2.30927 5.30231
Ar -1.86957 1.43964 5.62104
Ar -1.90347 -2.23234 5.60144
Ar 1.70066 -1.60814 5.60865
Ar 2.05275 1.87733 -5.76185
Ar -1.57349 1.93663 -5.97904
Ar -1.90633 -2.02548 -5.38564
Ar 1.78601 -1.83617 -5.56635
38
Atoms. Timestep: 110000
Ar 1.85743 1.8443 0.00289281
Ar 6.00455 1.34892 0.00805174
Ar 1.69658 5.47094 0.190084
Ar -1.89984 2.08549 -0.188736
Ar -5.83764 2.23059 0.0265194
Ar -2.41103 5.63805 -0.211327
Ar -1.89833 -1.80226 -0.0805349
Ar -5.97333 -2.04744 0.150992
Ar -1.50103 -5.59455 -0.0283336
Ar 1.87663 -2.00425 -0.093939
Ar 5.55066 -2.58261 -0.0670324
Ar 2.43923 -5.41474 0.256576
Ar 0.0651801 -0.0647053 2.63041
Ar 3.71952 0.0421524 2.71222
Ar -3.70728 0.357092 2.46092
Ar 0.0706436 3.60573 2.7349
Ar 0.332381 -3.81503 2.90712
Ar 4.08538 3.64583 2.40766
Ar -3.83304 3.89237 2.64833
Ar -3.78643 -3.73108 2.67957
Ar 4.21087 -3.97116 2.9091
Ar 0.0951706 -0.060097 -2.61925
Ar 3.73172 -0.176122 -2.81661
Ar -3.87327 -0.078011 -2.67834
Ar -0.201226 4.06631 -2.56193
Ar -0.198547 -3.82497 -2.85633
Ar 4.36133 3.36295 -2.29478
Ar -3.81987 3.66825 -2.94936
Ar -4.15418 -3.7739 -2.27563
Ar 3.45867 -3.86819 -2.92978
Ar 1.74495 2.0796 5.56626
Ar -1.89886 1.96865 5.2165
Ar -1.87518 -1.70887 5.41932
Ar 1.90177 -1.62402 5.57158
Ar 1.89209 2.4916 -5.23372
Ar -1.74998 1.67441 -5.3905
Ar -2.09505 -1.93699 -5.43938
Ar 1.62135 -1.39323 -5.78346
38
Atoms. Timestep: 120000
Ar 1.9362 1.88138 0.0784759
Ar 5.6545 2.31289 0.0620955
Ar 2.27976 5.79696 0.179801
Ar -1.85397 1.7628 -0.0707029
Ar -5.74522 1.75086 -0.00723513
Ar -1.43752 5.88101 -0.0569009
Ar -2.04354 -1.99257 0.0789712
Ar -5.6974 -2.01829 0.243398
Ar -2.11004 -5.52114 0.315967
Ar 1.80453 -1.87565 -0.082093
Ar 5.75823 -1.49795 -0.200168
Ar 1.8175 -5.65831 -0.055613
Ar -0.126862 0.168124 2.61991
Ar 3.71528 -0.0444654 2.53033
Ar -3.705 -0.111414 2.6553
Ar -0.0537289 3.79196 2.65457
Ar 0.139935 -3.65426 2.66148
Ar 3.44826 3.56221 3.10199
Ar -4.00953 4.10667 2.44347
Ar -3.79167 -3.64126 2.99359
Ar 4.25614 -4.03603 2.26261
Ar 0.0558907 0.0628401 -2.51965
Ar 3.88781 0.243518 -2.7469
Ar -4.06724 0.0115186 -2.66544
Ar 0.00627002 3.64085 -2.78165
Ar -0.304475 -3.80462 -2.55797
Ar 3.79015 3.81376 -2.66164
Ar -3.84958 4.02085 -2.34065
Ar -4.25743 -3.89628 -2.46053
Ar 3.64019 -3.72427 -2.83272
Ar 1.40041 1.39761 5.89821
Ar -2.1134 2.48752 5.20832
Ar -1.43553 -2.00999 5.6131
Ar 2.30358 -2.22733 5.03413
Ar 2.87438 1.31526 -6.33133
Ar -1.9381 1.57109 -5.62975
Ar -1.92312 -2.05041 -5.33808
Ar 1.69631 -1.81444 -5.29671
38
Atoms. Timestep: 130000
Ar 1.85708 1.84215 0.120694
Ar 5.67929 1.78057 -0.0896338
Ar 2.19646 5.41406 -0.195789
Ar -2.10176 1.88699 0.379444
Ar -5.99495 1.6182 0.509335
Ar -1.36083 6.40332 -0.354564
Ar -1.84432 -2.06964 0.0238707
Ar -5.6647 -2.2226 -0.161639
Ar -2.02351 -5.96785 -0.175097
Ar 1.97327 -1.98864 0.0446239
Ar 5.7105 -1.89812 0.187903
Ar 2.07744 -5.69432 0.386345
Ar -0.0356358 -0.0612991 2.88396
Ar 3.88 -0.180916 2.88496
Ar -3.86498 -0.512132 2.63874
Ar 0.174689 4.13211 2.41724
Ar -0.0988082 -3.93636 3.00923
Ar 4.02065 3.48622 2.82461
Ar -3.68302 4.74492 2.07514
Ar -3.77194 -4.11423 2.42829
Ar 3.82229 -3.74901 2.69127
Ar -0.185078 0.000667523 -2.48979
Ar 3.46698 -0.0578298 -2.72949
Ar -3.93571 0.101668 -2.49123
Ar -0.149475 3.62829 -2.52014
Ar 0.37437 -3.67666 -2.6291
Ar 3.78589 3.53976 -2.7562
Ar -3.77648 3.87826 -2.08407
Ar -3.40703 -3.71326 -2.88406
Ar 4.19385 -3.57966 -2.84271
Ar 1.59286 2.10538 5.28368
Ar -1.97689 2.3702 4.69118
Ar -1.9534 -1.37284 5.62615
Ar 1.84085 -2.00974 5.15133
Ar 1.21723 1.4597 -5.3707
Ar -2.39477 2.0389 -5.35038
Ar -1.59103 -1.60001 -5.54
Ar 1.95263 -2.02527 -5.59339
38
Atoms. Timestep: 140000
Ar 2.1387 1.92933 -0.04614
Ar 5.78723 1.75762 -0.0740051
Ar 1.81433 5.74684 -0.113989
Ar -1.75559 1.78048 0.0251673
Ar -5.48426 1.93737 -0.120337
Ar -2.13843 5.69427 0.0222618
Ar -1.94795 -1.85611 -0.150686
Ar -5.60125 -1.6338 0.0150654
Ar -1.81374 -5.7005 0.124751
Ar 1.70535 -1.82194 -0.063727
Ar 5.53844 -2.14328 0.167226
Ar 1.85439 -5.50996 -0.00519711
Ar -0.000958714 0.126635 2.58147
Ar 3.83194 0.077925 2.77274
Ar -3.77998 -0.0470258 2.7539
Ar -0.0868629 3.75064 2.4878
Ar -0.0463336 -3.74924 2.50168
Ar 3.71417 3.9889 2.55923
Ar -3.74638 3.50003 2.92383
Ar -3.86095 -3.83579 2.76797
Ar 3.61799 -3.67229 2.77294
Ar -0.0229122 -0.0825628 -2.74512
Ar 4.09079 0.023692 -2.66718
Ar -3.81278 -0.0194895 -2.83883
Ar -0.0105188 3.64728 -2.55352
Ar -0.00161751 -3.73521 -2.69424
Ar 3.7207 3.9568 -2.73873
Ar -3.76807 3.73012 -2.80418
Ar -3.94839 -4.05919 -2.56131
Ar 3.64146 -3.63007 -2.6725
Ar 1.99639 1.88934 5.33801
Ar -1.86978 1.87484 5.52419
Ar -1.7867 -1.74702 5.46848
Ar 1.94609 -1.88466 5.474
Ar 2.06142 1.78601 -5.23281
Ar -1.58394 1.9077 -5.46511
Ar -2.10181 -2.02349 -5.25337
Ar 1.7118 -1.95321 -5.47974
38
Atoms. Timestep: 150000
Ar 2.03349 1.91678 0.0407199
Ar 5.5283 2.2201 -0.320448
Ar 1.84459 5.7838 0.00882029
Ar -1.83318 1.85947 -0.0480171
Ar -5.66466 1.75719 -0.148891
Ar -1.83576 5.92097 0.252643
Ar -1.96235 -2.06593 0.0715121
Ar -5.71775 -1.93602 -0.0679606
Ar -1.99292 -5.72546 0.0911018
Ar 1.85175 -1.76381 0.164838
Ar 5.66502 -1.90458 0.251974
Ar 1.93076 -5.7472 0.049807
Ar -0.0624112 0.0809521 2.70032
Ar 3.99628 -0.0679867 2.71945
Ar -3.80296 0.124464 2.5795
Ar 0.226002 3.67703 2.71113
Ar 0.0253445 -3.66356 2.62866
Ar 3.95321 3.7275 2.73068
Ar -3.75997 3.90125 2.50141
Ar -4.0202 -3.77417 2.8368
Ar 3.58683 -3.81727 2.86036
Ar -0.0153005 -0.12681 -2.62627
Ar 3.9264 -0.00193982 -2.84189
Ar -4.00037 0.0272684 -2.84124
Ar -0.0280267 3.76511 -2.70024
Ar 0.00944269 -3.83982 -2.57362
Ar 3.43009 3.57876 -2.94749
Ar -3.57137 3.86497 -2.58097
Ar -3.82449 -3.86534 -2.66409
Ar 3.7715 -3.64627 -2.63768
Ar 2.11677 1.83145 5.46359
Ar -1.90897 1.93923 5.33634
Ar -1.82263 -1.84985 5.39393
Ar 1.74864 -1.87586 5.37824
Ar 1.7632 1.63309 -5.56456
Ar -2.01922 1.94107 -5.46264
Ar -1.6845 -1.92041 -5.244
Ar 2.12142 -1.95718 -5.50182
38
Atoms. Timestep: 160000
Ar 1.71846 1.93865 0.0536866
Ar 6.05974 1.62561 0.0142399
Ar 1.89339 5.84945 -0.158848
Ar -1.99856 1.88054 0.0344913
Ar -5.81964 2.17165 -0.218436
Ar -1.90505 5.4187 -0.301817
Ar -1.85588 -1.83066 0.0958505
Ar -5.68138 -1.71147 0.0136122
Ar -1.79213 -5.65718 0.0144958
Ar 1.88011 -1.70884 0.183271
Ar 5.61175 -1.95479 -0.131872
Ar 1.88301 -5.75352 -0.0883504
Ar -0.0550146 0.127679 2.74302
Ar 3.82179 0.0446663 2.80811
Ar -3.82371 -0.188018 2.98026
Ar -0.0258771 3.9275 2.68765
Ar 0.0710159 -3.65638 2.80238
Ar 3.76223 3.67415 2.54613
Ar -3.9314 3.68137 2.65436
Ar -3.81761 -3.9215 2.57857
Ar 3.78055 -3.6493 2.52739
Ar -0.0214248 0.0967846 -2.57524
Ar 3.91341 -0.00497664 -2.72138
Ar -3.63894 -0.0485283 -2.57885
Ar 0.0933964 3.73647 -2.7987
Ar -0.147332 -3.77168 -2.69885
Ar 3.87495 3.74569 -2.43197
Ar -3.6854 3.64442 -2.94836
Ar -3.83988 -3.99311 -2.54775
Ar 3.47584 -3.64531 -2.61122
Ar 1.88739 1.94106 5.41347
Ar -1.86892 2.01989 5.44071
Ar -1.8024 -1.88245 5.54316
Ar 2.02952 -1.73621 5.34895
Ar 2.03712 1.8173 -5.2684
Ar -1.78743 1.69739 -5.44017
Ar -2.05595 -2.09212 -5.58741
Ar 1.76226 -1.83194 -5.37616
38
Atoms. Timestep: 170000
Ar 1.76977 1.91682 0.0176031
Ar 5.61617 2.14968 -0.121373
Ar 2.12726 5.75921 -0.126687
Ar -1.85939 1.84622 0.0850209
Ar -5.51797 2.00923 -0.0927612
Ar -1.941 5.65873 -0.159344
Ar -1.88527 -1.80429 -0.0149995
Ar -5.56166 -2.28994 -0.07238
Ar -2.05577 -5.43215 -0.0987578
Ar 1.79484 -1.83973 0.153107
Ar 5.49247 -2.14515 0.0709557
Ar 1.63401 -5.63939 0.153535
Ar -0.0120402 -0.0645252 2.65504
Ar 3.87126 0.0990192 2.5773
Ar -3.71368 0.0431904 2.77163
Ar 0.0467986 3.73125 2.60699
Ar -0.0475635 -3.67209 2.83882
Ar 3.64596 3.89097 2.88202
Ar -3.59276 3.8739 2.79465
Ar -3.91996 -3.81258 2.8106
Ar 3.81031 -3.90357 2.80347
Ar -0.146997 0.0372678 -2.63173
Ar 3.69458 0.00277448 -2.55534
Ar -3.72598 -0.146913 -2.76919
Ar -0.0563177 3.77557 -2.63031
Ar -0.0169172 -3.77014 -2.63911
Ar 3.6159 4.04819 -3.14057
Ar -3.74699 3.7095 -2.82754
Ar -3.81582 -3.92637 -3.00892
Ar 3.79408 -4.07634 -2.61548
Ar 1.85193 1.76297 5.20786
Ar -1.83221 1.85096 5.73088
Ar -1.65498 -1.7981 5.50492
Ar 2.04516 -1.83258 5.42477
Ar 1.93963 1.83358 -5.57124
Ar -1.78371 1.84514 -5.47458
Ar -1.72612 -1.74517 -5.42562
Ar 1.86494 -1.94414 -5.11324
38
Atoms. Timestep: 180000
Ar 1.96698 1.84295 0.125299
Ar 5.5451 2.03955 0.0439223
Ar 1.75007 5.79978 0.00507713
Ar -1.87033 1.82886 0.0537333
Ar -5.65694 1.91462 -0.164208
Ar -2.03182 5.62006 -0.0602871
Ar -1.94428 -1.90328 -0.0123518
Ar -5.55155 -2.09051 0.115951
Ar -2.07206 -5.50901 -0.199378
Ar 1.85726 -1.89552 -0.0531672
Ar 5.92491 -2.07046 0.0731094
Ar 1.71141 -6.21909 -0.0327444
Ar -0.00155892 -0.0433159 2.65029
Ar 3.86818 -0.145781 2.41918
Ar -3.69364 0.25461 2.7921
Ar -0.245864 3.72252 2.59691
Ar -0.0128045 -3.66857 2.64785
Ar 3.81296 3.8738 2.63423
Ar -4.07053 3.92617 2.80909
Ar -3.7109 -3.48854 3.07599
Ar 3.72631 -4.19626 2.50948
Ar 0.0123496 0.0413892 -2.5861
Ar 3.81483 -0.0371701 -2.63212
Ar -3.75561 -0.0431866 -2.56774
Ar -0.0325308 3.66242 -2.52885
Ar 0.115553 -3.76692 -2.67121
Ar 3.68359 3.92741 -2.60023
Ar -3.77123 3.82259 -2.62518
Ar -3.95343 -3.7082 -3.10927
Ar 3.80647 -4.04185 -2.40779
Ar 1.79601 1.95523 5.29801
Ar -2.1155 2.08826 5.32984
Ar -1.56712 -1.70866 5.59574
Ar 2.1259 -1.97095 5.18831
Ar 2.00876 2.1225 -5.52442
Ar -1.79995 1.86633 -5.4197
Ar -1.76465 -1.91152 -5.51806
Ar 2.09764 -1.88927 -5.25133
38
Atoms. Timestep: 190000
Ar 1.85007 1.77976 0.136705
Ar 6.09407 1.7264 -0.225083
Ar 1.75333 5.95421 0.210762
Ar -2.09834 2.07703 -0.105632
Ar -5.73933 1.95082 -0.191797
Ar -2.41779 5.84645 -0.336951
Ar -2.01573 -1.83635 -0.0905205
Ar -5.81928 -1.84294 0.298104
Ar -1.85496 -5.75688 -0.127537
Ar 1.6524 -2.02729 0.14688
Ar 6.01768 -2.12918 0.298653
Ar 1.77201 -5.89701 -0.0800197
Ar -0.0312391 -0.0115278 2.62251
Ar 4.13402 -0.0372148 2.56745
Ar -3.59731 0.0596708 2.73152
Ar -0.108561 3.76276 2.48197
Ar -0.214125 -3.76048 2.73314
Ar 4.07312 3.75814 2.4236
Ar -4.08601 3.84318 2.63753
Ar -3.96641 -3.98992 2.6024
Ar 4.06573 -4.07687 2.68731
Ar -0.153469 0.00182429 -2.45899
Ar 3.66655 -0.0347855 -2.49103
Ar -3.73684 0.0389969 -2.6802
Ar 0.0704293 3.69772 -2.27294
Ar -0.00403521 -3.77667 -2.75984
Ar 3.86079 3.73671 -2.44521
Ar -3.8309 3.68561 -2.90949
Ar -3.96423 -3.5161 -2.81972
Ar 3.9853 -3.83268 -2.44489
Ar 1.9024 2.00078 5.03088
Ar -1.8054 2.05677 5.39527
Ar -1.5118 -1.75669 5.53911
Ar 2.11884 -1.97885 5.05568
Ar 1.80662 1.98825 -4.9665
Ar -1.82649 1.95744 -5.36047
Ar -1.91322 -1.80776 -5.37957
Ar 1.87414 -1.85229 -5.45309
38
Atoms. Timestep: 200000
Ar 1.90277 1.77948 -0.0271367
Ar 5.60837 2.10106 -0.0890721
Ar 1.95809 5.66768 -0.00793445
Ar -1.8421 1.93565 0.127534
Ar -5.80735 1.89203 0.169088
Ar -1.87012 5.81597 -0.00119394
Ar -1.78919 -1.89682 -0.0238467
Ar -5.8157 -1.82328 -0.1927
Ar -1.69217 -5.80113 0.213086
Ar 1.88184 -2.03588 -0.0451641
Ar 5.61728 -2.0972 -0.226805
Ar 2.18579 -5.83637 0.217771
Ar -0.016351 0.0781394 2.69663
Ar 3.79734 -0.00603794 2.5536
Ar -3.78361 0.022777 2.60077
Ar -0.0367145 3.7819 2.67614
Ar -0.100334 -3.62922 2.73093
Ar 3.72489 3.77137 2.6864
Ar -3.72431 3.8966 2.70331
Ar -3.87173 -3.68435 2.51935
Ar 3.79095 -3.70051 2.87354
Ar -0.0347166 -0.069481 -2.58116
Ar 3.87801 0.114693 -2.85629
Ar -3.71261 0.140272 -2.50881
Ar 0.0544996 3.76671 -2.61088
Ar -0.0199717 -3.96489 -2.67815
Ar 3.68172 3.80335 -2.79134
Ar -3.7641 3.83201 -2.53953
Ar -3.6852 -3.77153 -2.75779
Ar 3.76855 -3.99702 -2.80457
Ar 1.86856 1.79126 5.33835
Ar -1.96733 1.91335 5.30452
Ar -1.95051 -1.87318 5.38944
Ar 1.83101 -1.92445 5.46198
Ar 1.84598 1.81811 -5.28788
Ar -1.78231 1.95684 -5.25938
Ar -1.97519 -1.73245 -5.52354
Ar 1.84798 -2.03444 -5.44927
38
Atoms. Timestep: 210000
Ar 1.83037 1.78945 -0.0387611
Ar 5.67655 1.94934 -0.0359791
Ar 1.76143 5.76343 -0.0570575
Ar -1.86459 2.00052 0.0593672
Ar -5.78383 1.76221 0.0887041
Ar -2.07418 5.75185 0.0334301
Ar -1.8754 -1.89263 -0.0456114
Ar -5.73565 -1.98162 -0.0320447
Ar -2.08674 -5.46609 0.20386
Ar 1.88573 -1.89273 0.0990291
Ar 5.753 -1.91994 0.00156247
Ar 1.72188 -5.81762 -0.0433937
Ar -0.0396405 0.0196087 2.50085
Ar 3.75813 0.0671029 2.60039
Ar -3.87792 -0.0372662 2.55973
Ar 0.0991804 3.76614 2.65174
Ar 0.0274615 -3.80263 2.70448
Ar 3.87106 3.87346 2.39367
Ar -3.86025 3.76617 2.65139
Ar -3.91399 -3.69305 2.83635
Ar 3.89219 -3.90087 2.50237
Ar 0.0450582 -0.0687349 -2.65649
Ar 3.85127 -0.0441457 -2.63951
Ar -3.62476 -0.00633032 -2.65733
Ar -0.032248 3.84783 -2.5758
Ar 0.019961 -3.75148 -2.71771
Ar 3.6964 3.7172 -2.48826
Ar -3.8873 3.81771 -2.49628
Ar -3.76772 -3.72187 -2.68721
Ar 3.77249 -3.79308 -2.56894
Ar 1.82464 1.83251 5.28219
Ar -1.90049 1.88623 5.19218
Ar -1.77312 -1.85207 5.25195
Ar 2.00517 -1.93226 5.17265
Ar 2.08621 1.84885 -5.17326
Ar -1.56343 1.83165 -5.27473
Ar -1.79165 -1.84959 -5.25457
Ar 1.87672 -1.86625 -5.34294
38
Atoms. Timestep: 220000
Ar 1.74843 1.85373 -0.0601178
Ar 5.64244 1.92347 -0.0680718
Ar 2.17533 5.54482 -0.0117661
Ar -1.9635 1.97581 -0.0296173
Ar -5.82557 1.87962 0.0795064
Ar -1.82043 5.72837 0.167159
Ar -2.01929 -1.89893 -0.0259766
Ar -5.70095 -1.87132 0.0183097
Ar -1.80164 -5.91524 0.0234888
Ar 1.91137 -1.8924 -0.0183432
Ar 5.75184 -1.7329 -0.0148434
Ar 2.08647 -5.63324 0.31039
Ar -0.0529249 -0.153922 2.50905
Ar 3.64841 -0.0164997 2.52154
Ar -3.85826 0.090589 2.6215
Ar 0.0662733 3.63554 2.59669
Ar -0.0745157 -3.83532 2.60756
Ar 3.85818 3.81309 2.80651
Ar -3.95443 3.83684 2.71501
Ar -3.80114 -3.80782 2.52603
Ar 3.88587 -3.80088 2.75003
Ar 0.0359865 0.0580508 -2.63987
Ar 3.73541 -0.0150591 -2.64936
Ar -3.78274 0.123234 -2.68467
Ar -0.187016 3.90322 -2.78689
Ar 0.145685 -3.78936 -2.50184
Ar 3.72504 3.74127 -2.77012
Ar -3.90066 4.10319 -2.56132
Ar -3.73121 -3.82711 -2.59671
Ar 3.93324 -3.93942 -2.45403
Ar 2.03588 1.6739 5.46846
Ar -1.84109 1.98432 5.15178
Ar -1.86838 -1.93267 5.17943
Ar 1.80278 -1.84651 5.10898
Ar 1.80407 1.88152 -5.43397
Ar -1.86755 2.05858 -5.29764
Ar -1.83991 -1.87425 -5.33157
Ar 1.90053 -2.02532 -5.22467
38
Atoms. Timestep: 230000
Ar 1.79869 1.90875 -0.011867
Ar 5.77311 1.94451 0.163991
Ar 1.87367 5.74903 0.0122466
Ar -1.96613 1.89016 0.0122067
Ar -5.86692 1.9265 -0.00573536
Ar -1.88078 5.68847 0.0147668
Ar -1.80567 -1.97844 0.0305689
Ar -5.56298 -1.9842 0.00242695
Ar -2.09281 -5.72116 0.107774
Ar 1.80569 -1.8862 0.0364044
Ar 5.8605 -2.03591 -0.148728
Ar 1.61885 -5.76389 -0.0972813
Ar 0.0426404 0.0933822 2.61977
Ar 3.80639 -0.0653453 2.56936
Ar -3.8581 0.0420068 2.60484
Ar 0.0141211 3.77302 2.53841
Ar 0.134454 -3.79904 2.66273
Ar 3.65939 3.83848 2.56172
Ar -4.02233 3.91199 2.60604
Ar -3.7946 -3.81148 2.75044
Ar 3.91469 -3.96204 2.42306
Ar -0.00440645 -0.0569698 -2.64166
Ar 3.8776 -0.0472152 -2.62472
Ar -3.83543 -0.07495 -2.63525
Ar 0.0511116 3.71218 -2.49046
Ar 0.0225528 -3.92139 -2.83025
Ar 3.83916 3.79589 -2.41903
Ar -3.93137 4.02178 -2.59298
Ar -3.78092 -3.8265 -2.741
Ar 3.86203 -3.69627 -2.58119
Ar 1.96823 1.88693 5.26513
Ar -2.05996 2.06683 5.25459
Ar -1.73002 -1.71528 5.28096
Ar 2.01698 -1.78044 5.25502
Ar 1.91867 1.86815 -5.10392
Ar -1.91456 1.8296 -5.17716
Ar -1.835 -1.92104 -5.43887
Ar 2.08541 -1.89893 -5.23234
38
Atoms. Timestep: 240000
Ar 1.89989 1.79745 -0.0876806
Ar 5.70703 1.96778 0.0652369
Ar 2.12326 5.73129 -0.115768
Ar -2.05197 1.80677 0.0199636
Ar -5.82698 1.81995 -0.0454182
Ar -1.6227 5.73009 -0.158764
Ar -1.9253 -1.90744 0.140563
Ar -5.71756 -1.97641 -0.0887843
Ar -1.95641 -5.75315 0.0559881
Ar 1.90338 -2.01566 0.0440295
Ar 5.71129 -1.73802 -0.0303331
Ar 1.95248 -5.77397 -0.0867892
Ar -0.0587643 -0.0331489 2.55958
Ar 3.69593 0.0399391 2.62553
Ar -3.91705 -0.0362106 2.86903
Ar -0.0721455 3.73005 2.65953
Ar 0.102438 -3.99619 2.78467
Ar 3.6471 3.84012 2.61248
Ar -3.6297 4.11649 2.5406
Ar -3.8285 -3.82317 2.77505
Ar 3.89259 -3.9053 2.466
Ar 0.0340861 -0.24743 -2.55557
Ar 3.67881 -0.00325352 -2.64691
Ar -3.81436 0.0403456 -2.682
Ar 0.0164289 3.58827 -2.59599
Ar -0.0550264 -3.92714 -2.70776
Ar 3.84805 3.79657 -2.67459
Ar -3.96484 3.96965 -2.60676
Ar -3.84464 -3.69431 -2.5046
Ar 3.95233 -3.62846 -2.67403
Ar 1.81623 2.00224 5.4648
Ar -1.83635 1.90903 5.27153
Ar -1.82774 -1.85909 5.30418
Ar 1.91231 -1.81774 5.27888
Ar 1.98184 1.93016 -5.20423
Ar -1.88087 2.0271 -5.28676
Ar -2.01746 -1.7152 -5.39897
Ar 1.9749 -1.991 -5.38595
38
Atoms. Timestep: 250000
Ar 1.89841 1.93528 -0.0304362
Ar 5.81971 1.81064 0.151431
Ar 1.94217 5.81461 -0.160161
Ar -2.04073 1.962 -0.133716
Ar -5.90122 1.86722 -0.0468464
Ar -1.82401 5.7565 0.104514
Ar -1.98998 -1.92101 -0.0918532
Ar -5.63305 -1.77156 -0.0696558
Ar -1.97759 -5.70456 -0.0303186
Ar 1.75343 -2.00069 0.0478286
Ar 5.76818 -1.99213 -0.11564
Ar 2.10184 -5.8317 0.222009
Ar -0.149796 -0.0244737 2.61699
Ar 3.65185 0.0752596 2.49818
Ar -3.85772 0.185812 2.76732
Ar 0.0839649 3.53516 2.67243
Ar 0.0105111 -3.97305 2.69341
Ar 3.8063 3.77508 2.50192
Ar -3.85857 3.99734 2.68074
Ar -3.91339 -3.96481 2.78775
Ar 4.19678 -3.85803 2.76298
Ar -0.0830604 -0.00742516 -2.55014
Ar 3.88526 -0.124044 -2.56683
Ar -3.7491 0.0191375 -2.68039
Ar -0.217772 3.90203 -2.75801
Ar -0.175877 -3.89306 -2.63183
Ar 3.79486 3.92643 -2.73778
Ar -3.88347 4.02761 -2.73648
Ar -3.97448 -3.57309 -2.77843
Ar 3.79464 -4.13158 -2.61146
Ar 2.06772 1.82255 5.48043
Ar -1.71099 2.03598 5.35338
Ar -1.93031 -1.95441 5.20252
Ar 2.0213 -1.92179 5.10627
Ar 1.77842 1.98116 -5.16508
Ar -2.06792 1.91302 -5.44386
Ar -1.57738 -1.70726 -5.31541
Ar 2.14308 -1.98715 -4.99575
38
Atoms. Timestep: 260000
Ar 2.10062 2.18871 0.0391162
Ar 6.00526 1.67288 -0.378578
Ar 1.90286 5.83379 0.138286
Ar -1.92771 1.9008 -0.122662
Ar -5.97752 1.88027 0.269934
Ar -2.07877 5.69441 0.00209263
Ar -1.95907 -1.85364 -0.0490196
Ar -5.90942 -1.83483 -0.0202121
Ar -2.1938 -5.78588 -0.0395033
Ar 1.89638 -2.0286 0.261761
Ar 5.8014 -2.0828 0.244481
Ar 1.66973 -5.7136 -0.116621
Ar 0.114087 -0.0124645 2.55336
Ar 3.9581 0.0485356 2.37404
Ar -3.88987 -0.398364 2.92496
Ar -0.0200245 3.78546 2.44824
Ar -0.175891 -3.85726 2.75413
Ar 4.40424 3.77758 2.45051
Ar -4.08266 3.93293 2.58824
Ar -4.07566 -3.98835 2.63773
Ar 3.76073 -4.06633 2.74589