
38 atoms

1 atom types
-50 50 xlo xhi
-50 50 ylo yhi
-50 50 zlo zhi

Atoms

1   1    1.668    1.873    0.000 
2   1    5.651    1.903    0.003 
3   1    1.878    5.656   -0.010 
4   1   -1.867    1.863   -0.007 
5   1   -5.650    1.873   -0.014 
6   1   -1.898    5.645   -0.014 
7   1   -1.857   -1.873    0.000 
8   1   -5.640   -1.903   -0.003 
9   1   -1.867   -5.656    0.010 
10  1    1.878   -1.863    0.007 
11  1    5.661   -1.873    0.014 
12  1    1.909   -5.645    0.014 
13  1    0.002    0.007    2.642 
14  1    3.751    0.017    2.659 
15  1   -3.750   -0.003    2.646 
16  1   -0.008    3.756    2.646 
17  1    0.012   -3.745    2.659 
18  1    3.761    3.786    2.656 
19  1   -3.778    3.766    2.646 
20  1   -3.757   -3.773    2.663 
21  1    3.781   -3.752    2.673 
22  1    0.009   -0.007   -2.642 
23  1    3.761    0.003   -2.646 
24  1   -3.740   -0.017   -2.659 
25  1   -0.002    3.746   -2.659 
26  1    0.019   -3.756   -2.646 
27  1    3.768    3.773   -2.663 
28  1   -3.771    3.752   -2.673 
29  1   -3.750   -3.786   -2.656 
30  1    3.788   -3.766   -2.646 
31  1    1.871    1.897    5.329 
32  1   -1.888    1.886    5.325 
33  1   -1.878   -1.873    5.332 
34  1    1.881   -1.863    5.339 
35  1    1.888    1.873   -5.332 
36  1   -1.871    1.863   -5.339 
37  1   -1.861   -1.897   -5.329 
38  1    1.898   -1.886   -5.325 
