LAMMPS (29 Oct 2020)
Processor partition = 5
package gpu 1
# Initialization
units            metal
dimension        3
boundary         p p p
atom_style       atomic

#
#  region for the wall
#

region rs sphere 0 0 0 12.66

read_data        input.dat
Reading data file ...
  orthogonal box = (-50.000000 -50.000000 -50.000000) to (50.000000 50.000000 50.000000)
  1 by 1 by 1 MPI processor grid
  reading atoms ...
  38 atoms
  read_data CPU = 0.012 seconds

mass 1 39.948

pair_style lj/cut 8.5
pair_coeff 1 1 0.01042 3.405  8.5
variable i equal part

variable t world  2.00    2.60    3.64    5    6.63    9.12   12.07   16   21.97   26.83   32.76   40.00
velocity        all        create        $t        293288
velocity        all        create        9.12        293288
velocity all zero linear
velocity all zero angular
fix        1        all        nvt        temp        $t        $t        0.1
fix        1        all        nvt        temp        9.12        $t        0.1
fix        1        all        nvt        temp        9.12        9.12        0.1
fix  2 all wall/region rs harmonic 2.0 0.0 0.4


thermo         1000
thermo_style        custom        step  temp     pe ke etotal
thermo_modify       line        one

restart 5000000 restart.*
dump         2 all xyz 10000 structure_$i.xyz
dump         2 all xyz 10000 structure_5.xyz
dump_modify  2 element "Ar" sort id

temper 5000000 1000 $t 1 3678 3490
temper 5000000 1000 9.12 1 3678 3490
Per MPI rank memory allocation (min/avg/max) = 3.436 | 3.436 | 3.436 Mbytes
Step Temp PotEng KinEng TotEng 
       0    9.0486565   -1.7950808  0.043276334   -1.7518044 
    1000    9.1488248   -1.7432041  0.043755401   -1.6994487 
    2000    10.647614   -1.7315513   0.05092355   -1.6806278 
    3000    7.1774602   -1.7430074  0.034327103   -1.7086803 
    4000     7.918099    -1.755633  0.037869301   -1.7177637 
    5000    9.7173135   -1.7363775   0.04647427   -1.6899033 
    6000    10.770582   -1.7328323  0.051511659   -1.6813206 
    7000    8.5300466   -1.7551865  0.040796017   -1.7143905 
    8000    6.2133637   -1.7690206  0.029716191   -1.7393044 
    9000    6.0890536   -1.7655079  0.029121662   -1.7363862 
   10000    5.0868574   -1.7571847  0.024328533   -1.7328561 
   11000    5.7004403   -1.7621031   0.02726307   -1.7348401 
   12000    7.3703785   -1.7641288  0.035249759    -1.728879 
   13000    6.7189464    -1.764084  0.032134203   -1.7319498 
   14000    6.2052618   -1.7660532  0.029677442   -1.7363757 
   15000     7.348643   -1.7444808  0.035145806    -1.709335 
   16000    8.2317578   -1.7466105  0.039369414   -1.7072411 
   17000    6.7468436   -1.7573685  0.032267626   -1.7251009 
   18000    8.3197185   -1.7462581  0.039790097    -1.706468 
   19000    8.5083523   -1.7425498  0.040692261   -1.7018575 
   20000    9.4360907   -1.7627364  0.045129287   -1.7176071 
   21000    8.7954156   -1.7370335  0.042065178   -1.6949683 
   22000    7.8379433   -1.7446705  0.037485946   -1.7071846 
   23000    10.827475   -1.7324986  0.051783756   -1.6807148 
   24000    10.499489   -1.7260057  0.050215125   -1.6757906 
   25000    11.009767    -1.729727  0.052655592   -1.6770714 
   26000    11.420146   -1.7268556   0.05461828   -1.6722373 
   27000    13.157801   -1.7378864  0.062928834   -1.6749576 
   28000    11.077101   -1.7240097  0.052977626   -1.6710321 
   29000    12.078102   -1.7381793  0.057765035   -1.6804143 
   30000    14.768766   -1.7059047  0.070633476   -1.6352712 
   31000    15.102604   -1.6841963  0.072230095   -1.6119662 
   32000    15.655918   -1.7176566  0.074876392   -1.6427802 
   33000    15.854081   -1.6952912  0.075824131   -1.6194671 
   34000    14.622784   -1.7156478  0.069935298   -1.6457125 
   35000     17.44047   -1.7101023  0.083411234   -1.6266911 
   36000    18.926419   -1.7080468  0.090517973   -1.6175289 
   37000    10.657449    -1.732694  0.050970587   -1.6817234 
   38000     10.83015   -1.7248981  0.051796548   -1.6731016 
   39000    13.052828    -1.717682  0.062426788   -1.6552552 
   40000    15.394306   -1.7015924  0.073625198   -1.6279672 
   41000    16.401407   -1.6938929  0.078441785   -1.6154512 
   42000    17.535012   -1.7090922  0.083863392   -1.6252288 
   43000     19.80212   -1.6960084  0.094706124   -1.6013023 
   44000    16.133619   -1.7128538  0.077161054   -1.6356927 
   45000    12.847865   -1.6894038  0.061446524   -1.6279573 
   46000    17.415351   -1.7250259    0.0832911   -1.6417348 
   47000    15.696341   -1.6777789  0.075069721   -1.6027092 
   48000    16.855778   -1.6916895  0.080614873   -1.6110746 
   49000    15.655847   -1.7009817  0.074876053   -1.6261057 
   50000    14.226957   -1.6872449  0.068042204   -1.6192027 
   51000    18.040501    -1.712038  0.086280956    -1.625757 
   52000    16.186373   -1.7079221  0.077413359   -1.6305087 
   53000     18.12618   -1.7252819  0.086690729   -1.6385911 
   54000    17.751138   -1.7045806  0.084897041   -1.6196836 
   55000    14.722074   -1.7124349  0.070410163   -1.6420247 
   56000    13.565117   -1.7008919  0.064876874    -1.636015 
   57000    16.785161   -1.7203238  0.080277137   -1.6400466 
   58000    13.095174   -1.7286955  0.062629312   -1.6660662 
   59000    11.887171   -1.7224834  0.056851887   -1.6656316 
   60000    12.665471   -1.7221561  0.060574203   -1.6615819 
   61000    12.330874   -1.7337649  0.058973953   -1.6747909 
   62000    11.386579   -1.7417271   0.05445774   -1.6872694 
   63000    10.246989   -1.7458084  0.049007508   -1.6968009 
   64000    11.728836   -1.7347485  0.056094627   -1.6786539 
   65000    9.9479572   -1.7248572  0.047577352   -1.6772798 
   66000    13.046591   -1.7336166  0.062396957   -1.6712197 
   67000    12.100272   -1.7371636  0.057871069   -1.6792925 
   68000    13.242263   -1.7186908  0.063332782    -1.655358 
   69000    12.892725   -1.7452987  0.061661072   -1.6836376 
   70000     14.35969    -1.732709   0.06867702    -1.664032 
   71000    11.632704   -1.7165287  0.055634864   -1.6608939 
   72000    12.322295   -1.7391415  0.058932919   -1.6802086 
   73000    11.198043   -1.7360846  0.053556047   -1.6825286 
   74000    12.587597   -1.7216265   0.06020176   -1.6614248 
   75000    10.709461   -1.7336479   0.05121934   -1.6824286 
   76000    10.972592    -1.741276  0.052477798   -1.6887982 
   77000    13.725659   -1.7351086  0.065644683   -1.6694639 
   78000    13.836753   -1.7223959  0.066176005   -1.6562199 
   79000    15.895083   -1.7056097  0.076020228   -1.6295895 
   80000    18.415154   -1.7114802   0.08807278   -1.6234075 
   81000    13.976002   -1.6993768  0.066841981   -1.6325348 
   82000    16.514743   -1.6893252  0.078983827   -1.6103413 
   83000    17.925124   -1.7145919  0.085729153   -1.6288627 
   84000    16.624232   -1.6850831  0.079507475   -1.6055756 
   85000    17.007292   -1.7114518  0.081339504   -1.6301123 
   86000    14.055098   -1.7038285   0.06722027   -1.6366082 
   87000    20.440335   -1.6981975  0.097758467    -1.600439 
   88000    14.647492   -1.7108862  0.070053468   -1.6408328 
   89000    19.656305   -1.6975124  0.094008744   -1.6035036 
   90000    12.177732    -1.721959  0.058241532   -1.6637175 
   91000    15.696713    -1.691584  0.075071498   -1.6165125 
   92000     16.65963   -1.7152874  0.079676768   -1.6356106 
   93000    14.982439    -1.702917  0.071655395   -1.6312616 
   94000    16.633835     -1.69765    0.0795534   -1.6180966 
   95000     14.77662   -1.7162968  0.070671038   -1.6456258 
   96000    17.419667   -1.7116415  0.083311741   -1.6283297 
   97000    13.295867   -1.6953457  0.063589149   -1.6317565 
   98000    14.184987   -1.7146832   0.06784148   -1.6468417 
   99000    14.309572   -1.7374837   0.06843732   -1.6690464 
  100000    13.298435   -1.7185944  0.063601432    -1.654993 
  101000    13.410035   -1.7329019  0.064135174   -1.6687667 
  102000    12.485431   -1.7330758  0.059713138   -1.6733627 
  103000     9.541217   -1.7366847  0.045632066   -1.6910526 
  104000    12.138649   -1.7309547   0.05805461   -1.6729001 
  105000    14.078192   -1.7299955  0.067330716   -1.6626648 
  106000    10.084395   -1.7243934  0.048229882   -1.6761635 
  107000    12.920498   -1.7387166  0.061793901   -1.6769227 
  108000    13.162513   -1.7209123  0.062951371    -1.657961 
  109000     11.41759   -1.7402608  0.054606054   -1.6856548 
  110000     9.815237   -1.7341886  0.046942601    -1.687246 
  111000    13.592976   -1.7218361  0.065010111    -1.656826 
  112000      11.9269   -1.7371145  0.057041892   -1.6800727 
  113000    12.495098   -1.7319309  0.059759372   -1.6721715 
  114000    11.926297   -1.7196987  0.057039009   -1.6626596 
  115000    15.124797   -1.7140458  0.072336239   -1.6417096 
  116000    21.155938   -1.7117456   0.10118093   -1.6105646 
  117000    13.694039   -1.7070817  0.065493458   -1.6415882 
  118000    12.428337   -1.7221136  0.059440081   -1.6626735 
  119000     18.40911   -1.6992218  0.088043875   -1.6111779 
  120000    17.838221   -1.6936633  0.085313528   -1.6083497 
  121000    14.793809   -1.7157111  0.070753247   -1.6449578 
  122000    15.243705   -1.6860451   0.07290493   -1.6131401 
  123000    18.533662    -1.696586   0.08863956   -1.6079464 
  124000    15.026146   -1.7094287  0.071864428   -1.6375642 
  125000    14.203423   -1.6886676   0.06792965    -1.620738 
  126000    15.500593   -1.6962313  0.074133529   -1.6220978 
  127000    14.692233   -1.7046176  0.070267449   -1.6343501 
  128000    15.265281   -1.7092889  0.073008121   -1.6362807 
  129000    16.371675   -1.6957855   0.07829959   -1.6174859 
  130000    18.763708   -1.6987629  0.089739788   -1.6090231 
  131000    12.940676   -1.7148635  0.061890407   -1.6529731 
  132000    17.155507   -1.6767955  0.082048364   -1.5947472 
  133000    15.569464   -1.7088546  0.074462913   -1.6343917 
  134000    11.919917   -1.7004047  0.057008496   -1.6433962 
  135000    23.550985     -1.65207   0.11263554   -1.5394344 
  136000    22.055473   -1.6632499   0.10548306   -1.5577668 
  137000    26.273145   -1.6667304   0.12565461   -1.5410758 
  138000    20.464962   -1.6593435  0.097876244   -1.5614672 
  139000    22.278056   -1.6693422    0.1065476   -1.5627946 
  140000    22.665967   -1.6880285   0.10840283   -1.5796256 
  141000    15.044074   -1.6603142  0.071950169   -1.5883641 
  142000    22.589938   -1.6422918   0.10803921   -1.5342526 
  143000    14.938497   -1.6849389  0.071445235   -1.6134936 
  144000    19.060237   -1.6607124  0.091157971   -1.5695544 
  145000    19.282241   -1.6748286  0.092219733   -1.5826088 
  146000    18.328718   -1.6594838  0.087659391   -1.5718244 
  147000    22.098139   -1.6680708   0.10568712   -1.5623836 
  148000    23.216325   -1.6516175   0.11103498   -1.5405825 
  149000    18.960766   -1.6843835  0.090682239   -1.5937013 
  150000    25.515595   -1.6736484   0.12203153   -1.5516169 
  151000    28.599546   -1.6672215   0.13678091   -1.5304406 
  152000    23.535827   -1.6571464   0.11256304   -1.5445833 
  153000    20.284527   -1.6818493  0.097013295    -1.584836 
  154000    20.089957   -1.6660684  0.096082738   -1.5699857 
  155000    25.793215   -1.6604382   0.12335929   -1.5370789 
  156000    25.149371   -1.6473014   0.12028002   -1.5270214 
  157000    22.190218   -1.6421883    0.1061275   -1.5360608 
  158000    26.345421   -1.6566757   0.12600028   -1.5306754 
  159000    21.522194   -1.6786588   0.10293259   -1.5757262 
  160000    22.587709    -1.660576   0.10802855   -1.5525475 
  161000    20.929338   -1.6698973   0.10009718   -1.5698001 
  162000    18.618582   -1.6462989  0.089045703   -1.5572532 
  163000     20.03189   -1.6729776  0.095805023   -1.5771726 
  164000    15.673235   -1.6657633   0.07495921   -1.5908041 
  165000    18.717342   -1.6670237  0.089518034   -1.5775057 
  166000     22.67547   -1.6807639   0.10844828   -1.5723156 
  167000    19.101905   -1.6805237  0.091357253   -1.5891664 
  168000    20.719603   -1.6884409  0.099094097   -1.5893468 
  169000    15.207948   -1.6894521   0.07273392   -1.6167181 
  170000    16.296508   -1.7174666  0.077940093   -1.6395265 
  171000    11.522165   -1.7382907  0.055106198   -1.6831845 
  172000    11.763249   -1.7326999  0.056259213   -1.6764407 
  173000    9.1012131   -1.7235782  0.043527693   -1.6800505 
  174000    10.817077   -1.7317533  0.051734026   -1.6800193 
  175000    11.238507   -1.7283113  0.053749566   -1.6745617 
  176000    11.410414   -1.7385044  0.054571734   -1.6839326 
  177000    11.237134     -1.71003  0.053743003    -1.656287 
  178000    9.9161999    -1.729206  0.047425469   -1.6817805 
  179000    12.671156   -1.7193193  0.060601394   -1.6587179 
  180000    13.248501   -1.7267711  0.063362617   -1.6634085 
  181000    10.545048   -1.7223858  0.050433013   -1.6719528 
  182000    11.199371   -1.7448998  0.053562394   -1.6913374 
  183000    8.7972816   -1.7410098  0.042074102   -1.6989357 
  184000    10.113841   -1.7468506  0.048370711   -1.6984799 
  185000    9.3106642   -1.7403512  0.044529419   -1.6958218 
  186000    8.2137592   -1.7542264  0.039283333    -1.714943 
  187000    11.452215   -1.7409953  0.054771656   -1.6862236 
  188000    9.1382793   -1.7423309  0.043704966   -1.6986259 
  189000    8.1329908   -1.7513798  0.038897048   -1.7124828 
  190000    8.0111289   -1.7424997  0.038314228   -1.7041854 
  191000    11.257703   -1.7451399  0.053841374   -1.6912985 
  192000    11.283555   -1.7469263  0.053965017   -1.6929612 
  193000    8.7029092   -1.7477548  0.041622754   -1.7061321 
  194000    8.0353219    -1.737698  0.038429934   -1.6992681 
  195000    8.8507052   -1.7420296  0.042329607      -1.6997 
  196000    8.4168038    -1.736989  0.040254419   -1.6967346 
  197000    14.134732   -1.7192129  0.067601127   -1.6516118 
  198000    10.816558   -1.7274261  0.051731543   -1.6756945 
  199000    11.468369   -1.7312599  0.054848913    -1.676411 
  200000    10.949906   -1.7255373  0.052369296    -1.673168 
  201000     11.95972   -1.7310328  0.057198859   -1.6738339 
  202000    10.284732   -1.7401636  0.049188019   -1.6909756 
  203000    12.234176   -1.7352171  0.058511481   -1.6767056 
  204000     13.84911   -1.7282044  0.066235105   -1.6619693 
  205000    12.147726   -1.7374549   0.05809802   -1.6793569 
  206000    10.704618    -1.743186   0.05119618   -1.6919899 
  207000     12.27717   -1.7174809  0.058717104   -1.6587638 
  208000     13.00082   -1.7352904  0.062178053   -1.6731123 
  209000    14.278238   -1.7418505  0.068287462    -1.673563 
  210000     17.03636   -1.7194217  0.081478528   -1.6379432 
  211000    12.529564   -1.7228991   0.05992421   -1.6629749 
  212000     13.02478   -1.7140074  0.062292642   -1.6517148 
  213000    12.631696   -1.7196511  0.060412671   -1.6592385 
  214000    15.767412   -1.7027924  0.075409625   -1.6273827 
  215000     16.79276   -1.6745962  0.080313481   -1.5942827 
  216000    17.556527   -1.7098316  0.083966291   -1.6258653 
  217000    16.002742   -1.7137659   0.07653512   -1.6372307 
  218000    13.697663   -1.6988475  0.065510789   -1.6333368 
  219000    17.068963    -1.694054  0.081634455   -1.6124195 
  220000    18.599118   -1.7037615  0.088952614   -1.6148088 
  221000    20.497828   -1.6847664  0.098033432    -1.586733 
  222000    15.185019   -1.7106202  0.072624255   -1.6379959 
  223000    14.910834   -1.7125383  0.071312933   -1.6412253 
  224000    14.274255   -1.6656588  0.068268413   -1.5973904 
  225000    24.052903   -1.6608414   0.11503602   -1.5458054 
  226000    20.700984   -1.6978282  0.099005053   -1.5988231 
  227000    22.683303   -1.6399898   0.10848574   -1.5315041 
  228000    25.771863   -1.6821293   0.12325717   -1.5588722 
  229000    18.419559   -1.6369391   0.08809385   -1.5488453 
  230000    20.016583   -1.6563675  0.095731818   -1.5606356 
  231000    21.591993   -1.6823904   0.10326641    -1.579124 
  232000    25.347418   -1.6624255    0.1212272   -1.5411983 
  233000    17.898475   -1.6665556  0.085601702   -1.5809539 
  234000    25.273327   -1.6657992   0.12087286   -1.5449263 
  235000    20.393927   -1.6585735  0.097536512    -1.561037 
  236000    18.972724   -1.6685299  0.090739429   -1.5777904 
  237000    19.980876   -1.6458795  0.095561045   -1.5503185 
  238000    18.780789   -1.6688362  0.089821476   -1.5790147 
  239000    23.964819   -1.6399429   0.11461475   -1.5253282 
  240000    15.967706   -1.6614064  0.076367555   -1.5850388 
  241000    21.988849   -1.6907414   0.10516443   -1.5855769 
  242000    25.835958   -1.6469792   0.12356371   -1.5234155 
  243000    24.913783   -1.6806599   0.11915329   -1.5615066 
  244000    17.384273    -1.637148  0.083142467   -1.5540056 
  245000    23.106241   -1.6619319   0.11050849   -1.5514234 
  246000    22.160622    -1.677828   0.10598595    -1.571842 
  247000    20.749903   -1.6701535  0.099239012   -1.5709145 
  248000    20.285067   -1.6440238  0.097015876    -1.547008 
  249000    22.435155   -1.6843964   0.10729894   -1.5770975 
  250000    19.626771   -1.6693508  0.093867492   -1.5754833 
  251000    29.444515   -1.6527415   0.14082208   -1.5119194 
  252000    13.511744    -1.671094  0.064621612   -1.6064724 
  253000    20.426285   -1.6609884  0.097691271   -1.5632971 
  254000    16.447205   -1.6632125  0.078660819   -1.5845517 
  255000     27.18122   -1.6481428   0.12999759   -1.5181452 
  256000    20.203767   -1.6771354  0.096627049   -1.5805083 
  257000     17.09119   -1.6716041  0.081740757   -1.5898633 
  258000    21.448539   -1.6804695   0.10258033   -1.5778892 
  259000    20.090941   -1.6604096  0.096087446   -1.5643221 
  260000    23.821925   -1.6477991   0.11393134   -1.5338678 
  261000      20.5748   -1.6916602   0.09840156   -1.5932586 
  262000    22.419662   -1.6384709   0.10722485   -1.5312461 
  263000     26.78191   -1.6374816   0.12808784   -1.5093937 
  264000    20.293458   -1.6385008  0.097056007   -1.5414447 
  265000    19.197898    -1.652547  0.091816353   -1.5607306 
  266000     24.21023   -1.6683232   0.11578846   -1.5525347 
  267000    20.843166   -1.6695397  0.099685056   -1.5698547 
  268000    21.327903   -1.6669391   0.10200337   -1.5649357 
  269000    26.370585   -1.6600096   0.12612063   -1.5338889 
  270000    22.926018   -1.6089712   0.10964656   -1.4993246 
  271000    21.706577   -1.6618212   0.10381443   -1.5580068 
  272000    22.512376    -1.671517   0.10766826   -1.5638488 
  273000    21.798226   -1.6541404   0.10425275   -1.5498877 
  274000    26.026762   -1.6681536   0.12447625   -1.5436774 
  275000    27.895539   -1.6793458   0.13341391   -1.5459319 
  276000    15.914875   -1.6469679  0.076114884    -1.570853 
  277000    21.613592   -1.6659486   0.10336972   -1.5625789 
  278000    22.549013   -1.6334411   0.10784348   -1.5255976 
  279000    20.557849   -1.6443761  0.098320492   -1.5460556 
  280000    20.067041   -1.6231112   0.09597314    -1.527138 
  281000    21.810652   -1.6724385   0.10431218   -1.5681263 
  282000    20.701718   -1.6287044  0.099008564   -1.5296958 
  283000    15.941777   -1.6869046  0.076243548   -1.6106611 
  284000     27.08764   -1.6367733   0.12955003   -1.5072232 
  285000    23.427518   -1.6710763   0.11204504   -1.5590313 
  286000    16.751878   -1.6759661  0.080117954   -1.5958481 
  287000    23.644876   -1.6512383   0.11308458   -1.5381537 
  288000    22.656646   -1.6743479   0.10835825   -1.5659897 
  289000    20.814474   -1.6613995  0.099547831   -1.5618517 
  290000    23.672467   -1.6825971   0.11321654   -1.5693806 
  291000    27.146056   -1.6578656   0.12982942   -1.5280362 
  292000    21.624551   -1.7016632   0.10342212    -1.598241 
  293000    18.724723    -1.631624  0.089553337   -1.5420706 
  294000    25.638325    -1.676821   0.12261851   -1.5542025 
  295000    18.505098   -1.6851775  0.088502953   -1.5966746 
  296000    19.450787   -1.6657992  0.093025829   -1.5727734 
  297000    22.762394   -1.6682231   0.10886401   -1.5593591 
  298000    21.920478   -1.6754351   0.10483743   -1.5705976 
  299000    18.615335   -1.6065856  0.089030172   -1.5175554 
  300000    25.359998   -1.6706035   0.12128737   -1.5493162 
  301000    20.764556   -1.6469198  0.099309092   -1.5476107 
  302000    30.036281   -1.6721727   0.14365228   -1.5285205 
  303000    19.778551   -1.6929746  0.094593397   -1.5983812 
  304000    25.919143   -1.6406683   0.12396155   -1.5167067 
  305000    24.284427   -1.6687415   0.11614332   -1.5525981 
  306000    19.131117   -1.6408018  0.091496965   -1.5493048 
  307000    25.635326   -1.6683274   0.12260416   -1.5457233 
  308000    24.044288   -1.6644275   0.11499482   -1.5494327 
  309000    27.581292    -1.666327   0.13191099   -1.5344161 
  310000    25.953033   -1.6486696   0.12412363   -1.5245459 
  311000    21.621366   -1.6524058    0.1034069   -1.5489989 
  312000    21.175391   -1.6846307   0.10127396   -1.5833567 
  313000     16.70602   -1.6556004  0.079898637   -1.5757018 
  314000    26.550259   -1.6458306   0.12697994   -1.5188507 
  315000    26.197443   -1.6850986   0.12529256    -1.559806 
  316000    28.143734   -1.6757908   0.13460094   -1.5411898 
  317000    25.644775   -1.6429348   0.12264935   -1.5202854 
  318000    19.638051   -1.6583513  0.093921442   -1.5644298 
  319000    19.385701   -1.6706076  0.092714547    -1.577893 
  320000    19.457924   -1.6629175  0.093059961   -1.5698575 
  321000    15.599428   -1.6676057  0.074606219   -1.5929995 
  322000    17.246652   -1.7053162  0.082484277   -1.6228319 
  323000    23.014318   -1.6459599   0.11006886    -1.535891 
  324000    25.403957   -1.6890718   0.12149761   -1.5675741 
  325000    22.213163   -1.6974987   0.10623724   -1.5912614 
  326000    21.287214   -1.6251175   0.10180877   -1.5233087 
  327000     17.28343   -1.6414715  0.082660171   -1.5588113 
  328000    26.717003   -1.6350169   0.12777742   -1.5072395 
  329000    24.812967   -1.6232682   0.11867112   -1.5045971 
  330000    22.635324   -1.6367752   0.10825627   -1.5285189 
  331000    20.557915   -1.6289778  0.098320808    -1.530657 
  332000    24.999934   -1.6308342   0.11956532   -1.5112689 
  333000    18.024164   -1.6140966  0.086202826   -1.5278938 
  334000    23.216223   -1.6446455    0.1110345    -1.533611 
  335000    17.690437   -1.6279887  0.084606733    -1.543382 
  336000    21.528555   -1.6077418   0.10296301   -1.5047787 
  337000     17.95639   -1.5988512  0.085878685   -1.5129725 
  338000    20.527906   -1.6193953  0.098177284    -1.521218 
  339000    20.244427    -1.567072  0.096821512   -1.4702505 
  340000    37.677936   -1.5172671   0.18019945   -1.3370676 
  341000    27.080557    -1.557886   0.12951616   -1.4283698 
  342000    26.308182   -1.5879008   0.12582218   -1.4620786 
  343000    32.716103   -1.6150895   0.15646887   -1.4586206 
  344000    23.465526   -1.6000778   0.11222682    -1.487851 
  345000    23.362183   -1.5758328   0.11173257   -1.4641002 
  346000    25.242464   -1.5933848   0.12072525   -1.4726596 
  347000    31.094445   -1.6055484   0.14871308   -1.4568353 
  348000     20.22194   -1.5904039  0.096713963   -1.4936899 
  349000    29.046345    -1.606295   0.13891779   -1.4673772 
  350000    22.593317   -1.5795802   0.10805537   -1.4715249 
  351000    20.766278   -1.6226081  0.099317327   -1.5232908 
  352000    20.933282   -1.6180339   0.10011605   -1.5179179 
  353000    17.233372   -1.6405959  0.082420763   -1.5581752 
  354000    26.366246   -1.6234588   0.12609988   -1.4973589 
  355000     25.22109   -1.6148287   0.12062302   -1.4942057 
  356000    27.130603   -1.6198477   0.12975551   -1.4900922 
  357000    19.004291   -1.6235685  0.090890403   -1.5326781 
  358000    23.704536   -1.6398333   0.11336991   -1.5264634 
  359000     23.97638   -1.6387256   0.11467004   -1.5240555 
  360000    24.669206   -1.6602082   0.11798357   -1.5422246 
  361000    20.023771   -1.6231739  0.095766193   -1.5274077 
  362000     25.58225   -1.6439019   0.12235032   -1.5215516 
  363000    25.541768   -1.6515792   0.12215671   -1.5294225 
  364000    25.709643   -1.6301697   0.12295959   -1.5072101 
  365000     17.44268   -1.6510008  0.083421803    -1.567579 
  366000    21.048523   -1.6516561    0.1006672   -1.5509889 
  367000    24.312959   -1.6011438   0.11627978    -1.484864 
  368000     22.48973   -1.6131238   0.10755995   -1.5055638 
  369000    21.617978   -1.6152251   0.10339069   -1.5118344 
  370000    23.546566   -1.5604298    0.1126144   -1.4478154 
  371000    21.559057    -1.590542   0.10310889   -1.4874331 
  372000    18.903465   -1.5761128   0.09040819   -1.4857046 
  373000    24.603114   -1.6026399   0.11766748   -1.4849725 
  374000    26.687936   -1.5876988    0.1276384   -1.4600604 
  375000    34.161599    -1.592457   0.16338213   -1.4290748 
  376000    27.320199   -1.5770617   0.13066228   -1.4463994 
  377000    30.899707   -1.5947113   0.14778172   -1.4469296 
  378000    27.295563   -1.5377802   0.13054445   -1.4072357 
  379000    30.419924   -1.5131012    0.1454871   -1.3676141 
  380000    31.470657   -1.5466472   0.15051236   -1.3961348 
  381000     34.05564   -1.5200264   0.16287537    -1.357151 
  382000    36.746807   -1.5410375   0.17574621   -1.3652913 
  383000    29.685375   -1.5549756   0.14197403   -1.4130016 
  384000    25.035209   -1.6082468   0.11973403   -1.4885128 
  385000    25.378142   -1.5710628   0.12137415   -1.4496887 
  386000    30.970831    -1.556805   0.14812188   -1.4086832 
  387000    28.689304    -1.512603   0.13721019   -1.3753928 
  388000    33.595583   -1.5108143   0.16067509   -1.3501392 
  389000    39.150986   -1.4837075    0.1872445    -1.296463 
  390000    38.075719    -1.568999    0.1821019   -1.3868971 
  391000    30.218354   -1.5037067   0.14452307   -1.3591836 
  392000    35.384555   -1.4887751   0.16923107    -1.319544 
  393000    34.966405   -1.5004406   0.16723122   -1.3332094 
  394000    28.986625   -1.4610348   0.13863217   -1.3224026 
  395000     34.79492   -1.5169131   0.16641107   -1.3505021 
  396000    32.918681   -1.5349964   0.15743772   -1.3775587 
  397000    32.799557   -1.5197985     0.156868   -1.3629305 
  398000    27.975251   -1.4963197   0.13379514   -1.3625246 
  399000    30.236232   -1.5100811   0.14460857   -1.3654726 
  400000     34.88044   -1.5384355   0.16682008   -1.3716154 
  401000    26.497328    -1.517725   0.12672679   -1.3909982 
  402000     26.14014   -1.5489023    0.1250185   -1.4238838 
  403000    42.938466   -1.5169893    0.2053586   -1.3116307 
  404000    31.176097   -1.5491283   0.14910359   -1.4000247 
  405000    30.189816   -1.5048644   0.14438658   -1.3604778 
  406000    24.564815   -1.5290445   0.11748431   -1.4115602 
  407000    37.808855   -1.5200898   0.18082559   -1.3392642 
  408000    25.605301   -1.5309289   0.12246056   -1.4084683 
  409000    39.771982   -1.5394594   0.19021449    -1.349245 
  410000    31.609434   -1.5256012   0.15117608   -1.3744251 
  411000    29.842857   -1.5288821   0.14272721   -1.3861549 
  412000    31.423575   -1.4767438   0.15028719   -1.3264566 
  413000    28.441008   -1.5316278   0.13602269   -1.3956051 
  414000    42.617153   -1.5658909   0.20382188   -1.3620691 
  415000    31.611956   -1.5593253   0.15118814   -1.4081372 
  416000    25.658118   -1.5771576   0.12271317   -1.4544444 
  417000    24.088133   -1.5850439   0.11520452   -1.4698394 
  418000     26.82365   -1.5647714   0.12828747   -1.4364839 
  419000     27.89991   -1.5724931   0.13343482   -1.4390583 
  420000    28.180045   -1.5758011    0.1347746   -1.4410265 
  421000     28.37884   -1.5431228   0.13572536   -1.4073974 
  422000    25.974987   -1.6085089   0.12422863   -1.4842803 
  423000    26.212316   -1.5626415   0.12536369   -1.4372778 
  424000    26.312138   -1.5766342    0.1258411   -1.4507931 
  425000     29.55838    -1.564189   0.14136666   -1.4228223 
  426000    30.869325   -1.5621462   0.14763642   -1.4145098 
  427000    30.304143   -1.5059911   0.14493336   -1.3610577 
  428000    34.422504   -1.5267264   0.16462994   -1.3620964 
  429000    36.904649   -1.4769266   0.17650111   -1.3004255 
  430000    39.084834   -1.5473094   0.18692812   -1.3603813 
  431000    34.814839   -1.5303068   0.16650633   -1.3638004 
  432000    35.341603   -1.4716563   0.16902565   -1.3026307 
  433000    34.744645   -1.5170681   0.16617062   -1.3508975 
  434000    37.156387   -1.4362819   0.17770508   -1.2585768 
  435000    45.452567   -1.4305165    0.2173826   -1.2131339 
  436000    30.410153   -1.4304024   0.14544037   -1.2849621 
  437000    37.844112   -1.4247039   0.18099421   -1.2437097 
  438000    38.764788   -1.4435912   0.18539746   -1.2581938 
  439000    40.422149   -1.4578147     0.193324   -1.2644907 
  440000    27.255705   -1.4350973   0.13035383   -1.3047435 
  441000    25.176243   -1.4921166   0.12040854   -1.3717081 
  442000    43.130725   -1.4609084    0.2062781   -1.2546303 
  443000    34.116494    -1.452431   0.16316641   -1.2892645 
  444000    35.855363    -1.403423   0.17148277   -1.2319402 
  445000    38.782814     -1.45583   0.18548367   -1.2703463 
  446000    39.468312    -1.500424   0.18876215   -1.3116619 
  447000    46.738718   -1.4634442   0.22353378   -1.2399104 
  448000     43.49956   -1.4412807    0.2080421   -1.2332386 
  449000    46.603257   -1.4195323   0.22288592   -1.1966464 
  450000    38.174045   -1.4348836   0.18257216   -1.2523114 
  451000     42.34438   -1.4319684   0.20251731   -1.2294511 
  452000      53.3317   -1.5303054   0.25506554   -1.2752399 
  453000     35.79084   -1.5345021   0.17117418   -1.3633279 
  454000    45.809388    -1.422717   0.21908914   -1.2036279 
  455000    36.874883   -1.4134953   0.17635875   -1.2371366 
  456000    38.917763   -1.4602523   0.18612908   -1.2741233 
  457000    40.259533   -1.5897577   0.19254627   -1.3972114 
  458000    35.960668   -1.5037233    0.1719864   -1.3317369 
  459000    29.882847   -1.5282579   0.14291846   -1.3853394 
  460000    34.857853   -1.5182801   0.16671205    -1.351568 
  461000    28.363633   -1.5452868   0.13565263   -1.4096342 
  462000    36.849512   -1.5185184   0.17623741    -1.342281 
  463000    40.055771   -1.5067896   0.19157174   -1.3152179 
  464000    33.925864   -1.4928753    0.1622547   -1.3306206 
  465000    32.124156   -1.5463347    0.1536378   -1.3926969 
  466000    29.431484    -1.527743   0.14075976   -1.3869832 
  467000    30.600763   -1.5241857   0.14635199   -1.3778337 
  468000    34.281817   -1.5560547   0.16395709   -1.3920976 
  469000    28.382891   -1.5756833   0.13574474   -1.4399385 
  470000    23.835927   -1.5752162   0.11399831   -1.4612179 
  471000    29.225342   -1.4934168   0.13977386   -1.3536429 
  472000    35.625563   -1.5227666   0.17038372   -1.3523829 
  473000    31.507116   -1.4533517   0.15068673   -1.3026649 
  474000    43.379727   -1.4068675   0.20746898   -1.1993985 
  475000    34.347406    -1.384526   0.16427078   -1.2202552 
  476000      36.4455   -1.3631634   0.17430517   -1.1888582 
  477000    41.935417   -1.3441874   0.20056139    -1.143626 
  478000     40.17233   -1.4068674    0.1921292   -1.2147381 
  479000    30.368597   -1.3989185   0.14524162   -1.2536769 
  480000    47.262806   -1.4810866   0.22604029   -1.2550463 
  481000    40.255294   -1.4189801   0.19252599   -1.2264541 
  482000    37.443351   -1.4099016   0.17907752   -1.2308241 
  483000    40.769545   -1.4139954   0.19498546     -1.21901 
  484000    48.769696   -1.4426915   0.23324718   -1.2094444 
  485000    44.929301   -1.4012677   0.21488001   -1.1863877 
  486000    36.655531   -1.4025079   0.17530967   -1.2271982 
  487000    48.657557   -1.4174678   0.23271086    -1.184757 
  488000    33.391667   -1.4054371   0.15969983   -1.2457372 
  489000    43.366987   -1.4267602   0.20740805   -1.2193522 
  490000    38.089886   -1.4516921   0.18216965   -1.2695224 
  491000    38.091433   -1.4885592   0.18217705   -1.3063821 
  492000    52.813135   -1.3974545   0.25258544   -1.1448691 
  493000    42.825372   -1.5268834   0.20481771   -1.3220657 
  494000    26.991279   -1.5701596   0.12908917   -1.4410705 
  495000    33.103658   -1.5538371   0.15832239   -1.3955147 
  496000    37.005301   -1.5157594   0.17698249   -1.3387769 
  497000    29.620367   -1.5131194   0.14166312   -1.3714563 
  498000    27.048405   -1.5193332   0.12936239   -1.3899708 
  499000    33.380365   -1.5330814   0.15964578   -1.3734356 
  500000    29.601064   -1.5368181    0.1415708   -1.3952473 
  501000    26.545425   -1.5046642   0.12695682   -1.3777074 
  502000     34.93633    -1.545949   0.16708738   -1.3788616 
  503000    38.518182   -1.5581745   0.18421804   -1.3739565 
  504000    28.928667   -1.5688982   0.13835497   -1.4305432 
  505000    25.401627   -1.5982869   0.12148647   -1.4768004 
  506000    26.969845   -1.5871669   0.12898667   -1.4581803 
  507000    26.884654   -1.5674664   0.12857923   -1.4388872 
  508000     26.60179   -1.5825324    0.1272264    -1.455306 
  509000    25.477062   -1.6093615   0.12184724   -1.4875142 
  510000     21.25796   -1.5746907   0.10166886   -1.4730218 
  511000    28.387529   -1.5969442   0.13576692   -1.4611772 
  512000    21.251306   -1.6193929   0.10163703   -1.5177559 
  513000    20.964675   -1.6280072   0.10026619    -1.527741 
  514000    14.418569   -1.5904514  0.068958612   -1.5214928 
  515000    20.858264   -1.6114337  0.099757264   -1.5116764 
  516000    20.162106   -1.6265224  0.096427801   -1.5300946 
  517000    18.703706   -1.5814807  0.089452821   -1.4920278 
  518000    23.938816   -1.5483016   0.11449039   -1.4338112 
  519000    27.412889   -1.5247044   0.13110558   -1.3935988 
  520000    30.450403   -1.5921868   0.14563287   -1.4465539 
  521000    22.878567   -1.5624323   0.10941962   -1.4530127 
  522000    22.495312   -1.5650388   0.10758665   -1.4574521 
  523000    30.609011   -1.5336451   0.14639143   -1.3872537 
  524000    24.289695   -1.5862518   0.11616851   -1.4700833 
  525000    27.287726   -1.5688743   0.13050697   -1.4383673 
  526000    27.985363   -1.5363405   0.13384351    -1.402497 
  527000    34.705901   -1.5635318   0.16598532   -1.3975465 
  528000    28.525399   -1.5406582    0.1364263   -1.4042319 
  529000     38.98404   -1.5541454   0.18644606   -1.3676994 
  530000    28.260518   -1.5562572   0.13515947   -1.4210977 
  531000    30.530265   -1.5006105   0.14601482   -1.3545957 
  532000    34.094195    -1.520589   0.16305976   -1.3575293 
  533000    24.903695   -1.5122292   0.11910504   -1.3931241 
  534000    29.533773   -1.5028765   0.14124897   -1.3616275 
  535000    29.007636    -1.506364   0.13873266   -1.3676314 
  536000    33.554951   -1.5454685   0.16048076   -1.3849877 
  537000    28.913639   -1.5043853    0.1382831   -1.3661022 
  538000    38.923902   -1.5627661   0.18615844   -1.3766076 
  539000    33.564097   -1.5333769    0.1605245   -1.3728524 
  540000    31.917961   -1.5163159   0.15265165   -1.3636643 
  541000    31.673323   -1.5270756   0.15148164   -1.3755939 
  542000    31.056697   -1.5717434   0.14853255   -1.4232108 
  543000    30.992558   -1.6154233   0.14822579   -1.4671975 
  544000    22.377466   -1.5857976   0.10702304   -1.4787746 
  545000    25.006491   -1.6217499   0.11959668   -1.5021532 
  546000    19.718318   -1.6272363  0.094305326    -1.532931 
  547000    20.587461   -1.6275646  0.098462112   -1.5291024 
  548000    20.240777   -1.6414502  0.096804054   -1.5446462 
  549000    20.813096   -1.6193886   0.09954124   -1.5198474 
  550000    21.583885   -1.6255346   0.10322763    -1.522307 
  551000    22.151663   -1.6376908   0.10594311   -1.5317477 
  552000    20.347949   -1.6218208  0.097316619   -1.5245042 
  553000    21.443782   -1.6540258   0.10255757   -1.5514682 
  554000    26.337756   -1.6473604   0.12596362   -1.5213967 
  555000    19.472868   -1.6120266   0.09313143   -1.5188952 
  556000    24.426441   -1.5843592   0.11682251   -1.4675367 
  557000    25.627735   -1.5909097   0.12256785   -1.4683419 
  558000    32.480575   -1.5639585   0.15534242   -1.4086161 
  559000    33.195883   -1.6107778   0.15876347   -1.4520143 
  560000    21.367025   -1.6513122   0.10219048   -1.5491217 
  561000    20.452419   -1.6122285  0.097816257   -1.5144123 
  562000    20.039991    -1.623093  0.095843769   -1.5272493 
  563000    18.922522   -1.6110153  0.090499335    -1.520516 
  564000    22.784717    -1.632607   0.10897077   -1.5236362 
  565000    22.904908   -1.6339917    0.1095456   -1.5244461 
  566000    22.787296   -1.5954191    0.1089831    -1.486436 
  567000    20.055099   -1.6140996  0.095916025   -1.5181836 
  568000    25.478894   -1.6169039     0.121856   -1.4950479 
  569000    18.635044   -1.6161381  0.089124433   -1.5270137 
  570000    22.442175   -1.5817742   0.10733252   -1.4744417 
  571000    30.631927   -1.6133142   0.14650103   -1.4668131 
  572000    32.870966   -1.5501263   0.15720951   -1.3929168 
  573000    22.538468   -1.5836128   0.10779305   -1.4758197 
  574000    31.639301   -1.5095421   0.15131892   -1.3582232 
  575000    30.313267   -1.5292774     0.144977   -1.3843004 
  576000    30.078687   -1.5726619   0.14385509   -1.4288068 
  577000    45.456439   -1.4933992   0.21740112   -1.2759981 
  578000    37.763963   -1.5724127   0.18061089   -1.3918018 
  579000    25.931086   -1.5341711   0.12401867   -1.4101524 
  580000    32.781028   -1.5197755   0.15677937   -1.3629961 
  581000    37.852706   -1.5034073   0.18103531    -1.322372 
  582000    28.558468   -1.6192679   0.13658445   -1.4826834 
  583000    30.644469   -1.5744463   0.14656101   -1.4278853 
  584000    27.308758   -1.6072338   0.13060756   -1.4766263 
  585000    25.428403   -1.6406761   0.12161453   -1.5190616 
  586000      17.5844    -1.619217  0.084099599   -1.5351174 
  587000    20.550745   -1.6498678  0.098286513   -1.5515813 
  588000     30.98799   -1.6467614   0.14820395   -1.4985574 
  589000    23.881085    -1.581562   0.11421428   -1.4673477 
  590000    24.707716   -1.6194984   0.11816775   -1.5013306 
  591000    18.844138   -1.5943303  0.090124453   -1.5042059 
  592000      19.1295   -1.5955056  0.091489233   -1.5040164 
  593000    21.094443   -1.6334266   0.10088682   -1.5325398 
  594000    24.005356   -1.5950551   0.11480863   -1.4802465 
  595000    16.761641   -1.6195912  0.080164649   -1.5394266 
  596000    23.866466   -1.6196811   0.11414437   -1.5055367 
  597000    26.321367    -1.601743   0.12588524   -1.4758578 
  598000    17.207228   -1.6130833  0.082295725   -1.5307876 
  599000    20.673718   -1.6223688  0.098874647   -1.5234941 
  600000    24.447528   -1.6510227   0.11692337   -1.5340993 
  601000    24.269729   -1.6372417   0.11607302   -1.5211687 
  602000    17.296027   -1.6436792  0.082720415   -1.5609588 
  603000    17.728257    -1.621986   0.08478761   -1.5371984 
  604000    16.679118   -1.6476879  0.079769973   -1.5679179 
  605000    25.242199   -1.6688321   0.12072398   -1.5481081 
  606000    24.577781   -1.6397235   0.11754632   -1.5221772 
  607000    22.459399   -1.6596484   0.10741489   -1.5522335 
  608000    25.888595   -1.6357313   0.12381545   -1.5119158 
  609000    25.762923   -1.6437738   0.12321441   -1.5205594 
  610000    15.226838   -1.6070765  0.072824264   -1.5342523 
  611000    20.997598   -1.5988035   0.10042364   -1.4983799 
  612000    26.801569   -1.6039462   0.12818186   -1.4757643 
  613000    20.556804   -1.6658615  0.098315492    -1.567546 
  614000    26.351141   -1.6374607   0.12602764   -1.5114331 
  615000    26.481502   -1.6472507   0.12665111   -1.5205996 
  616000    26.549838   -1.6425279   0.12697793   -1.5155499 
  617000      23.8168   -1.6562651   0.11390683   -1.5423583 
  618000    31.651108     -1.61159   0.15137539   -1.4602146 
  619000    18.980208   -1.6424445  0.090775226   -1.5516693 
  620000    24.576471    -1.638617   0.11754006    -1.521077 
  621000    22.640727   -1.6412506   0.10828211   -1.5329684 
  622000    19.336963   -1.6062541  0.092481451   -1.5137727 
  623000    20.456269   -1.6502945  0.097834671   -1.5524598 
  624000    23.784223    -1.651325   0.11375103    -1.537574 
  625000    21.816254   -1.6373918   0.10433897   -1.5330528 
  626000    20.989461   -1.6177203   0.10038473   -1.5173356 
  627000     21.94636   -1.6356296   0.10496122   -1.5306683 
  628000    21.762483   -1.6478548   0.10408181    -1.543773 
  629000    22.654373   -1.6562335   0.10834738   -1.5478861 
  630000    24.598843   -1.6178926   0.11764705   -1.5002456 
  631000    25.261128   -1.5892555   0.12081451    -1.468441 
  632000    32.310663   -1.5970819    0.1545298   -1.4425521 
  633000    26.745085   -1.5825913   0.12791172   -1.4546796 
  634000    31.855143   -1.5642986   0.15235122   -1.4119473 
  635000    31.973465   -1.5588439    0.1529171   -1.4059268 
  636000    21.954732   -1.5892504   0.10500126   -1.4842492 
  637000     20.68053   -1.5860468  0.098907229   -1.4871396 
  638000    28.822976   -1.6020708    0.1378495   -1.4642213 
  639000    28.087982   -1.6172708    0.1343343   -1.4829365 
  640000    22.812526    -1.566448   0.10910377   -1.4573443 
  641000    27.937989   -1.5596611   0.13361693   -1.4260442 
  642000    27.349134   -1.5447644   0.13080066   -1.4139637 
  643000    36.421912   -1.5497096   0.17419236   -1.3755172 
  644000    23.030651   -1.5789387   0.11014698   -1.4687917 
  645000    24.100838   -1.5491342   0.11526528   -1.4338689 
  646000    34.189656   -1.5286926   0.16351632   -1.3651763 
  647000    34.750928   -1.5566573   0.16620067   -1.3904566 
  648000    29.259828   -1.5190372   0.13993879   -1.3790984 
  649000    31.182224   -1.5329068    0.1491329   -1.3837739 
  650000    27.643308    -1.570185   0.13220758   -1.4379775 
  651000    34.449833   -1.5404231   0.16476064   -1.3756624 
  652000    25.360086   -1.6038104   0.12128779   -1.4825226 
  653000    27.368536   -1.5824508   0.13089346   -1.4515574 
  654000    22.329244   -1.6165135   0.10679241    -1.509721 
  655000    20.755238   -1.6162448  0.099264527   -1.5169803 
  656000    24.108669   -1.6261943   0.11530273   -1.5108916 
  657000    23.494879   -1.6358424   0.11236721   -1.5234752 
  658000    18.939616   -1.6115814  0.090581089   -1.5210004 
  659000    23.949414   -1.6287819   0.11454108   -1.5142408 
  660000    22.819902   -1.5982629   0.10913904   -1.4891238 
  661000    27.845026   -1.6134841   0.13317233   -1.4803118 
  662000    23.803618   -1.5518236   0.11384379   -1.4379798 
  663000    34.594868   -1.4948614   0.16545429   -1.3294071 
  664000    36.599901   -1.4630156   0.17504361    -1.287972 
  665000    43.504017   -1.3948709   0.20806342   -1.1868075 
  666000    42.411051   -1.4243011   0.20283617    -1.221465 
  667000    37.129239   -1.4541369   0.17757524   -1.2765617 
  668000    47.188843   -1.5593819   0.22568656   -1.3336953 
  669000    39.728944   -1.4699104   0.19000865   -1.2799017 
  670000    32.466303    -1.454711   0.15527416   -1.2994368 
  671000    39.921504   -1.4746029    0.1909296   -1.2836733 
  672000    30.900929   -1.4576896   0.14778757    -1.309902 
  673000    41.594234   -1.4822109   0.19892964   -1.2832812 
  674000    43.739365   -1.3730408     0.209189   -1.1638518 
  675000    32.813804   -1.4771508   0.15693613   -1.3202146 
  676000    38.113825   -1.4597008   0.18228415   -1.2774166 
  677000    37.516597   -1.4723047   0.17942783   -1.2928769 
  678000    38.020553   -1.4968265   0.18183806   -1.3149885 
  679000    31.853632   -1.4984572   0.15234399   -1.3461133 
  680000    42.983867   -1.4590365   0.20557573   -1.2534608 
  681000     45.48527   -1.4764281   0.21753901   -1.2588891 
  682000    42.794453   -1.4825121   0.20466984   -1.2778423 
  683000    41.710425   -1.4736818   0.19948533   -1.2741964 
  684000     36.17068   -1.4975381   0.17299081   -1.3245472 
  685000    39.944597   -1.4103166   0.19104004   -1.2192765 
  686000    30.759784   -1.4535459   0.14711252   -1.3064334 
  687000    41.387604   -1.4067372   0.19794141   -1.2087958 
  688000    45.938622   -1.4011822   0.21970722    -1.181475 
  689000    38.483339   -1.3427903    0.1840514   -1.1587389 
  690000    43.485545   -1.3586994   0.20797507   -1.1507244 
  691000    38.012487   -1.4320893   0.18179949   -1.2502898 
  692000    39.548436   -1.4252976   0.18914535   -1.2361522 
  693000    40.276647   -1.2915007   0.19262811   -1.0988726 
  694000    42.875105   -1.4298221   0.20505556   -1.2247665 
  695000    31.231554   -1.4329632   0.14936882   -1.2835944 
  696000    49.560174   -1.4499295   0.23702774   -1.2129018 
  697000    38.398354   -1.3805732   0.18364494   -1.1969282 
  698000    34.512812   -1.4731164   0.16506185   -1.3080546 
  699000    55.910063   -1.3673619   0.26739689    -1.099965 
  700000    47.316963   -1.4003734   0.22629931   -1.1740741 
  701000    43.873428   -1.4653849   0.20983017   -1.2555547 
  702000    33.642691   -1.4499165   0.16090039   -1.2890161 
  703000    40.804487   -1.4463404   0.19515257   -1.2511879 
  704000     43.76646   -1.4233058   0.20931858   -1.2139872 
  705000    48.506881   -1.4123071   0.23199024   -1.1803168 
  706000    51.170063   -1.4505107   0.24472724   -1.2057835 
  707000    42.491101   -1.4757567   0.20321902   -1.2725377 
  708000    32.575228    -1.446131   0.15579511   -1.2903359 
  709000    42.473105   -1.4912082   0.20313295   -1.2880753 
  710000    39.327357   -1.4595621   0.18808801   -1.2714741 
  711000    35.569443   -1.4414436   0.17011532   -1.2713283 
  712000    37.213518   -1.4387269   0.17797832   -1.2607485 
  713000    42.784319   -1.4340304   0.20462137    -1.229409 
  714000    38.187569   -1.4094311   0.18263684   -1.2267942 
  715000    34.288245   -1.4382828   0.16398783    -1.274295 
  716000    35.061204   -1.4662442    0.1676846   -1.2985596 
  717000    42.159859   -1.3268759   0.20163481   -1.1252411 
  718000    41.272839   -1.4203984   0.19739252   -1.2230058 
  719000    47.899694   -1.4333428   0.22908629   -1.2042565 
  720000    46.151334    -1.476944   0.22072454   -1.2562194 
  721000    35.124608   -1.4427641   0.16798784   -1.2747763 
  722000    34.518168   -1.4348933   0.16508746   -1.2698059 
  723000    42.770247   -1.3867154   0.20455407   -1.1821613 
  724000    33.578425   -1.4486216   0.16059303   -1.2880285 
  725000    35.842541   -1.4699736   0.17142144   -1.2985522 
  726000    33.911472   -1.4863012   0.16218587   -1.3241153 
  727000    33.583193    -1.501257   0.16061583   -1.3406412 
  728000    43.370586   -1.4894362   0.20742526   -1.2820109 
  729000    44.109334   -1.4599847   0.21095842   -1.2490263 
  730000     41.33398   -1.4142813   0.19768494   -1.2165964 
  731000    46.718855     -1.50167   0.22343878   -1.2782312 
  732000    38.037797   -1.5157183   0.18192053   -1.3337978 
  733000    33.653115    -1.418555   0.16095024   -1.2576047 
  734000    37.861147   -1.4597784   0.18107568   -1.2787027 
  735000    40.886596    -1.422584   0.19554527   -1.2270387 
  736000    39.846788   -1.4833063   0.19057226   -1.2927341 
  737000    33.418418   -1.4672161   0.15982777   -1.3073883 
  738000    47.844775   -1.4584802   0.22882364   -1.2296565 
  739000    40.702553   -1.4616362   0.19466506   -1.2669711 
  740000    38.530116   -1.4705386   0.18427511   -1.2862635 
  741000    39.123737   -1.4463205   0.18711418   -1.2592063 
  742000    40.002911   -1.4448497   0.19131894   -1.2535307 
  743000    50.889718    -1.397564   0.24338646   -1.1541775 
  744000    37.925022   -1.3579774   0.18138117   -1.1765962 
  745000     35.72943    -1.326713   0.17088048   -1.1558325 
  746000    42.035274   -1.3945936   0.20103897   -1.1935546 
  747000     50.82791   -1.3791909   0.24309085      -1.1361 
  748000    50.028019   -1.4153283   0.23926527   -1.1760631 
  749000    46.444463   -1.4360459   0.22212646   -1.2139195 
  750000    40.256689   -1.4725926   0.19253266     -1.28006 
  751000    40.565004   -1.3824262   0.19400722    -1.188419 
  752000    40.214889   -1.4332155   0.19233275   -1.2408827 
  753000    44.499465   -1.4591916   0.21282427   -1.2463673 
  754000    42.172611   -1.4850093    0.2016958   -1.2833135 
  755000    44.523872   -1.5114494     0.212941   -1.2985084 
  756000    37.390761   -1.5277355     0.178826   -1.3489095 
  757000    37.421472   -1.5454791   0.17897288   -1.3665062 
  758000    53.668666   -1.4637504   0.25667712   -1.2070733 
  759000    31.808055   -1.4513648   0.15212601   -1.2992388 
  760000    30.739752   -1.5434992   0.14701672   -1.3964825 
  761000    46.064657   -1.4067361      0.22031   -1.1864261 
  762000    38.243108   -1.4915944   0.18290246   -1.3086919 
  763000    36.939037   -1.4873483   0.17666558   -1.3106827 
  764000    40.832913   -1.5055911   0.19528852   -1.3103026 
  765000     37.90167   -1.4700895   0.18126949     -1.28882 
  766000    42.344038   -1.4790759   0.20251567   -1.2765603 
  767000    45.032346   -1.4505302   0.21537284   -1.2351574 
  768000    37.905865   -1.4302904   0.18128955   -1.2490008 
  769000    36.432983   -1.3736665   0.17424531   -1.1994212 
  770000    42.925154   -1.4201969   0.20529493   -1.2149019 
  771000     47.94276   -1.3835655   0.22929226   -1.1542733 
  772000    36.468697   -1.4289883   0.17441611   -1.2545721 
  773000    39.934334   -1.4398573   0.19099096   -1.2488664 
  774000    43.468771   -1.4127065   0.20789484   -1.2048117 
  775000    39.110113   -1.4450846   0.18704902   -1.2580356 
  776000    38.303207   -1.4045455   0.18318989   -1.2213556 
  777000    46.186536   -1.4133917    0.2208929   -1.1924988 
  778000    42.323701    -1.468545   0.20241841   -1.2661266 
  779000    41.963007   -1.4692168   0.20069334   -1.2685234 
  780000    43.204393    -1.436081   0.20663043   -1.2294506 
  781000    37.950009   -1.4517603   0.18150067   -1.2702597 
  782000    37.447708     -1.45708   0.17909836   -1.2779816 
  783000    44.931419   -1.4717384   0.21489015   -1.2568482 
  784000    43.881051   -1.4546095   0.20986663   -1.2447429 
  785000     41.42154   -1.4570717   0.19810371    -1.258968 
  786000    45.574647   -1.4079357   0.21796646   -1.1899693 
  787000    47.322897   -1.3650718   0.22632769   -1.1387441 
  788000    36.275781   -1.3599078   0.17349347   -1.1864143 
  789000    43.039779   -1.4211571   0.20584314   -1.2153139 
  790000    38.387002   -1.3979299   0.18359065   -1.2143393 
  791000    55.940849   -1.3884919   0.26754412   -1.1209477 
  792000    36.412161   -1.5201694   0.17414572   -1.3460236 
  793000    28.690217   -1.4666241   0.13721456   -1.3294095 
  794000    45.927476   -1.4747311   0.21965391   -1.2550772 
  795000    46.865068   -1.4521354   0.22413806   -1.2279973 
  796000     42.47577   -1.4786478    0.2031457   -1.2755021 
  797000    38.083998   -1.4579459   0.18214149   -1.2758044 
  798000    36.953021    -1.477079   0.17673246   -1.3003466 
  799000    47.404944   -1.3361074   0.22672009   -1.1093873 
  800000     36.59555   -1.3993081    0.1750228   -1.2242853 
  801000    40.044192   -1.4091192   0.19151637   -1.2176029 
  802000    40.985541   -1.4476017   0.19601849   -1.2515832 
  803000    38.181404   -1.3694745   0.18260735   -1.1868671 
  804000    32.255233   -1.4270137   0.15426469    -1.272749 
  805000    42.813554   -1.4251599   0.20476119   -1.2203987 
  806000    36.310823   -1.3918368   0.17366106   -1.2181757 
  807000    34.410558   -1.4468377   0.16457281   -1.2822649 
  808000    37.285042    -1.460951   0.17832039   -1.2826306 
  809000    41.269716   -1.4120547   0.19737759   -1.2146771 
  810000    45.914165   -1.4723543   0.21959025   -1.2527641 
  811000    38.802434   -1.3823707    0.1855775   -1.1967932 
  812000    38.521488   -1.3729734   0.18423384   -1.1887395 
  813000    40.072302   -1.3709996   0.19165081   -1.1793488 
  814000    36.350287   -1.4411259    0.1738498    -1.267276 
  815000    33.875954   -1.4115041     0.162016   -1.2494881 
  816000    44.748591   -1.4342996   0.21401575   -1.2202839 
  817000    38.478145   -1.3406347   0.18402655   -1.1566082 
  818000    41.006832   -1.3671286   0.19612031   -1.1710083 
  819000    31.567868   -1.4021955   0.15097729   -1.2512182 
  820000    38.331661   -1.3860469   0.18332597   -1.2027209 
  821000    38.619969   -1.4104237   0.18470484   -1.2257188 
  822000    43.837841    -1.369297   0.20965997    -1.159637 
  823000    37.974094   -1.3366621   0.18161587   -1.1550463 
  824000    51.424705   -1.4415651    0.2459451     -1.19562 
  825000     31.21251   -1.3715154   0.14927774   -1.2222377 
  826000    48.781198   -1.4465362   0.23330219    -1.213234 
  827000    42.869135   -1.3986403   0.20502701   -1.1936133 
  828000    35.219564   -1.3942169   0.16844198   -1.2257749 
  829000    35.862216   -1.4327535   0.17151554    -1.261238 
  830000    44.384489   -1.4156834   0.21227438    -1.203409 
  831000     36.21124   -1.4729994    0.1731848   -1.2998146 
  832000    44.186014   -1.4304645   0.21132515   -1.2191393 
  833000    34.339525   -1.4269859   0.16423308   -1.2627528 
  834000     41.59827   -1.4327547   0.19894894   -1.2338058 
  835000    35.079637   -1.4165921   0.16777276   -1.2488194 
  836000    41.182484   -1.4126002   0.19696039   -1.2156399 
  837000    32.829615   -1.4556579   0.15701175   -1.2986462 
  838000     46.31717   -1.4096559   0.22151767   -1.1881382 
  839000    39.609648   -1.3876951   0.18943811   -1.1982569 
  840000    51.345599   -1.3956819   0.24556677   -1.1501151 
  841000    45.519264   -1.4488323   0.21770159   -1.2311307 
  842000    35.572608   -1.3977727   0.17013046   -1.2276422 
  843000    34.908007      -1.3902   0.16695192   -1.2232481 
  844000    42.527511   -1.4293978   0.20339316   -1.2260047 
  845000    34.868362   -1.3713336   0.16676231   -1.2045713 
  846000    39.223648   -1.2918401   0.18759201   -1.1042481 
  847000    35.525725   -1.3383697   0.16990623   -1.1684635 
  848000    32.439711   -1.4121471   0.15514698   -1.2570001 
  849000    47.077474   -1.4665333   0.22515392   -1.2413794 
  850000     36.75289   -1.4211842    0.1757753   -1.2454089 
  851000    47.824799    -1.464384    0.2287281   -1.2356559 
  852000    34.493687   -1.5457555   0.16497038   -1.3807851 
  853000    47.012045   -1.4954459     0.224841   -1.2706049 
  854000    37.306815   -1.4472116   0.17842452   -1.2687871 
  855000    34.813185   -1.3736393   0.16649842   -1.2071409 
  856000    38.675961   -1.4057074   0.18497263   -1.2207348 
  857000    36.193854   -1.4371307   0.17310164    -1.264029 
  858000    38.392546   -1.5139902   0.18361716    -1.330373 
  859000    48.465721   -1.4008294   0.23179339    -1.169036 
  860000    39.974703    -1.407956   0.19118403   -1.2167719 
  861000    41.464487   -1.4406181   0.19830911    -1.242309 
  862000    42.245821   -1.4347338   0.20204593   -1.2326879 
  863000    41.462128   -1.4699749   0.19829783    -1.271677 
  864000    31.109892   -1.4974708   0.14878696   -1.3486838 
  865000    43.983598   -1.4963025   0.21035707   -1.2859455 
  866000     45.29357   -1.4565622   0.21662218   -1.2399401 
  867000    37.190326   -1.5313626    0.1778674   -1.3534952 
  868000    34.081199   -1.4845133   0.16299761   -1.3215157 
  869000    33.684273   -1.4866992   0.16109926      -1.3256 
  870000    32.839386   -1.4977623   0.15705848   -1.3407038 
  871000    31.867127   -1.4655062   0.15240853   -1.3130977 
  872000    31.430196   -1.5563052   0.15031885   -1.4059863 
  873000    31.645511   -1.4944487   0.15134862      -1.3431 
  874000    37.576071   -1.4592175   0.17971227   -1.2795052 
  875000    31.264792   -1.5244831   0.14952779   -1.3749553 
  876000    35.586769   -1.5319412   0.17019819    -1.361743 
  877000    32.790361   -1.4750046   0.15682401   -1.3181806 
  878000    35.954859   -1.4770492   0.17195862   -1.3050906 
  879000    30.961248   -1.4531227   0.14807605   -1.3050467 
  880000    42.492165   -1.4563752   0.20322411   -1.2531511 
  881000     39.69302   -1.4587285   0.18983685   -1.2688916 
  882000    34.112987   -1.4047964   0.16314964   -1.2416467 
  883000    39.904593   -1.3746153   0.19084872   -1.1837666 
  884000    42.361465   -1.4805476   0.20259902   -1.2779486 
  885000    30.290704   -1.4555306   0.14486909   -1.3106615 
  886000    34.618746   -1.4926026   0.16556849   -1.3270341 
  887000    37.476527   -1.4228728   0.17923619   -1.2436366 
  888000    35.942355   -1.4551607   0.17189882   -1.2832619 
  889000    49.608878   -1.5013538   0.23726068   -1.2640931 
  890000    43.221107   -1.4808045   0.20671036   -1.2740941 
  891000    35.778036   -1.4471545   0.17111294   -1.2760415 
  892000    39.646342   -1.4422709    0.1896136   -1.2526573 
  893000    44.508981   -1.4560253   0.21286978   -1.2431556 
  894000    41.220365   -1.4477544   0.19714156   -1.2506128 
  895000    43.319119   -1.4415755   0.20717912   -1.2343964 
  896000     42.07307    -1.466029   0.20121973   -1.2648093 
  897000    41.041483   -1.4252583   0.19628604   -1.2289722 
  898000     39.70772   -1.4858004   0.18990715   -1.2958933 
  899000    43.131636   -1.4859079   0.20628246   -1.2796255 
  900000    32.550809   -1.4817616   0.15567833   -1.3260833 
  901000    39.016855   -1.4389318     0.186603   -1.2523288 
  902000    44.778755   -1.4498898   0.21416001   -1.2357298 
  903000     35.18639   -1.4691598   0.16828332   -1.3008765 
  904000    35.152565   -1.4640265   0.16812155    -1.295905 
  905000    44.312615    -1.482842   0.21193064   -1.2709113 
  906000    45.504452   -1.4188836   0.21763075   -1.2012529 
  907000     31.23635   -1.4843032   0.14939176   -1.3349114 
  908000      45.3064   -1.4320904   0.21668354   -1.2154068 
  909000    37.558571   -1.4784019   0.17962858   -1.2987733 
  910000     30.65726   -1.5507696   0.14662219   -1.4041474 
  911000    31.826172   -1.5416043   0.15221266   -1.3893916 
  912000    36.066993   -1.5355035   0.17249491   -1.3630086 
  913000    38.761743   -1.5254384    0.1853829   -1.3400555 
  914000    27.843683    -1.577334    0.1331659   -1.4441681 
  915000    31.489953   -1.5032808   0.15060465   -1.3526762 
  916000    39.837807   -1.5238991   0.19052931   -1.3333698 
  917000    33.991578   -1.4735501   0.16256898   -1.3109811 
  918000    34.252123   -1.5461546   0.16381507   -1.3823395 
  919000    26.211898   -1.5071818   0.12536169   -1.3818201 
  920000    24.439271   -1.5725303   0.11688388   -1.4556464 
  921000    22.401071   -1.5541626   0.10713593   -1.4470266 
  922000    25.454092   -1.5424405   0.12173739   -1.4207031 
  923000    24.960566   -1.5397287   0.11937704   -1.4203516 
  924000    36.408059   -1.5427294   0.17412611   -1.3686033 
  925000    38.274163    -1.560714   0.18305098    -1.377663 
  926000    33.778757   -1.5450034   0.16155114   -1.3834523 
  927000    34.335274   -1.5224881   0.16421275   -1.3582753 
  928000     27.40184   -1.5237056   0.13105274   -1.3926528 
  929000    29.526244   -1.4938252   0.14121296   -1.3526122 
  930000    39.565103   -1.5447438   0.18922507   -1.3555187 
  931000     36.55081   -1.5884358   0.17480883   -1.4136269 
  932000    31.589163   -1.5134987   0.15107913   -1.3624195 
  933000    37.282257   -1.5464744   0.17830707   -1.3681673 
  934000     27.86177   -1.6043816   0.13325241   -1.4711292 
  935000    26.332241   -1.5620656   0.12593724   -1.4361284 
  936000    24.987132   -1.5372462   0.11950409   -1.4177421 
  937000     22.98988   -1.5575148   0.10995198   -1.4475628 
  938000    24.938133   -1.5154511   0.11926975   -1.3961814 
  939000    26.320661   -1.5525152   0.12588186   -1.4266334 
  940000    24.657457   -1.5542356   0.11792738   -1.4363082 
  941000    32.162363    -1.536498   0.15382053   -1.3826775 
  942000    36.959499   -1.5164742   0.17676344   -1.3397108 
  943000    33.655277   -1.5018127   0.16096058   -1.3408521 
  944000    39.514979    -1.383187   0.18898534   -1.1942017 
  945000    66.462859   -1.4018458   0.31786695   -1.0839789 
  946000    36.646261   -1.4546457   0.17526534   -1.2793804 
  947000    44.195456   -1.4299573   0.21137031    -1.218587 
  948000    37.514065   -1.4492336   0.17941572   -1.2698178 
  949000    38.849056   -1.4328702   0.18580048   -1.2470698 
  950000     35.63572   -1.3707503    0.1704323    -1.200318 
  951000    31.844288   -1.4341767    0.1522993   -1.2818774 
  952000    39.217911   -1.4471582   0.18756458   -1.2595936 
  953000    39.630228   -1.4627905   0.18953654    -1.273254 
  954000    30.637478   -1.3477512   0.14652758   -1.2012237 
  955000    40.941228   -1.3937117   0.19580656   -1.1979052 
  956000    44.066358   -1.4043805   0.21075288   -1.1936276 
  957000    36.398921   -1.4875115    0.1740824   -1.3134291 
  958000     39.57571   -1.3649756    0.1892758   -1.1756998 
  959000    30.109793   -1.3621885   0.14400386   -1.2181847 
  960000    46.821258   -1.4378747   0.22392854   -1.2139462 
  961000    39.203212   -1.4972305   0.18749428   -1.3097363 
  962000    36.533738   -1.4664738   0.17472718   -1.2917466 
  963000    37.711586    -1.428655   0.18036039   -1.2482946 
  964000    37.532568   -1.4363284   0.17950421   -1.2568242 
  965000    34.132449   -1.4047834   0.16324271   -1.2415407 
  966000    53.882852   -1.3447025   0.25770149    -1.087001 
  967000    50.948946    -1.316316   0.24366972   -1.0726462 
  968000    33.238922   -1.4255477   0.15896931   -1.2665784 
  969000    33.894238   -1.4460816   0.16210344   -1.2839781 
  970000    40.656584   -1.4694291   0.19444521   -1.2749839 
  971000    36.264997   -1.4168021   0.17344189   -1.2433602 
  972000    38.263435    -1.454139   0.18299968   -1.2711393 
  973000    51.315968   -1.4872078   0.24542505   -1.2417827 
  974000    42.593852   -1.4698463   0.20371044   -1.2661358 
  975000     41.46112   -1.4333704   0.19829301   -1.2350774 
  976000    37.039733   -1.5024464   0.17714717   -1.3252992 
  977000     33.00083   -1.4282399   0.15783061   -1.2704093 
  978000    51.061094   -1.4228457   0.24420608   -1.1786396 
  979000     33.59914   -1.4534719    0.1606921   -1.2927798 
  980000    36.878654   -1.4247932   0.17637679   -1.2484165 
  981000     41.63181   -1.4825519   0.19910935   -1.2834426 
  982000    42.366784    -1.454766   0.20262446   -1.2521416 
  983000    32.300337   -1.4753285   0.15448041   -1.3208481 
  984000    35.396308   -1.4287647   0.16928728   -1.2594774 
  985000    37.877001   -1.4220016   0.18115151   -1.2408501 
  986000    39.620797   -1.4651006   0.18949143   -1.2756092 
  987000    37.999103    -1.458776   0.18173548   -1.2770405 
  988000    36.228963    -1.506323   0.17326956   -1.3330535 
  989000    47.634811   -1.4205371   0.22781945   -1.1927176 
  990000      38.6192   -1.4529412   0.18470117   -1.2682401 
  991000    33.840276    -1.498003   0.16184536   -1.3361576 
  992000    31.209253   -1.4579419   0.14926216   -1.3086797 
  993000    45.801153   -1.4958912   0.21904976   -1.2768414 
  994000    32.229998   -1.4604472     0.154144   -1.3063032 
  995000    36.708756   -1.4089012   0.17556423    -1.233337 
  996000    37.159123   -1.3813586   0.17771816   -1.2036405 
  997000     41.50039   -1.4732498   0.19848082    -1.274769 
  998000    42.503459   -1.4785047   0.20327812   -1.2752265 
  999000    40.289067   -1.4524101   0.19268751   -1.2597226 
 1000000    26.774961   -1.4636847   0.12805461   -1.3356301 
 1001000    43.678798      -1.4299   0.20889932   -1.2210007 
 1002000    40.150386   -1.4339653   0.19202426    -1.241941 
 1003000    49.073113   -1.4735968   0.23469831   -1.2388985 
 1004000     41.17066   -1.4075238   0.19690384   -1.2106199 
 1005000    36.252648   -1.4302624   0.17338283   -1.2568795 
 1006000    42.807536    -1.483695   0.20473241   -1.2789626 
 1007000     34.05871    -1.448186   0.16289005   -1.2852959 
 1008000    33.812652   -1.4123448   0.16171325   -1.2506316 
 1009000    40.547051   -1.3978805   0.19392136   -1.2039591 
 1010000    47.873539   -1.4198514    0.2289612   -1.1908902 
 1011000    43.337015   -1.4468988   0.20726471   -1.2396341 
 1012000    33.597498   -1.3971016   0.16068425   -1.2364173 
 1013000    44.110803   -1.3370011   0.21096545   -1.1260356 
 1014000    43.431988   -1.3592808   0.20771893   -1.1515619 
 1015000    43.803581   -1.3892157   0.20949612   -1.1797196 
 1016000    38.503971   -1.4270204   0.18415007   -1.2428703 
 1017000    50.640357   -1.3399225   0.24219385   -1.0977287 
 1018000    37.709356   -1.3440846   0.18034972   -1.1637348 
 1019000    45.189157    -1.403709   0.21612281   -1.1875862 
 1020000    34.973073   -1.3792007   0.16726311   -1.2119376 
 1021000    35.599913   -1.4153068   0.17026105   -1.2450457 
 1022000     32.28166   -1.4092514   0.15439109   -1.2548603 
 1023000    39.397852   -1.4687645   0.18842516   -1.2803394 
 1024000    44.147418   -1.4553595   0.21114056   -1.2442189 
 1025000    41.588353   -1.4218632   0.19890151   -1.2229617 
 1026000    39.962622   -1.3768392   0.19112625    -1.185713 
 1027000    49.819829   -1.3699294   0.23826958   -1.1316598 
 1028000    36.102068    -1.421614   0.17266266   -1.2489513 
 1029000    37.962698   -1.4642244   0.18156136    -1.282663 
 1030000    43.698848   -1.4092261   0.20899522   -1.2002309 
 1031000    36.061108   -1.3845238   0.17246677    -1.212057 
 1032000    46.280338   -1.3929702   0.22134152   -1.1716287 
 1033000    47.231962   -1.4846981   0.22589278   -1.2588053 
 1034000    46.047399    -1.436735   0.22022746   -1.2165076 
 1035000    40.485269   -1.3580905   0.19362587   -1.1644646 
 1036000    40.966435   -1.3795046   0.19592711   -1.1835774 
 1037000    46.268066   -1.4088364   0.22128283   -1.1875536 
 1038000    41.268726    -1.426771   0.19737286   -1.2293982 
 1039000    42.951237   -1.3414912   0.20541968   -1.1360715 
 1040000    36.428296   -1.4104831   0.17422289   -1.2362603 
 1041000    46.097723   -1.3973704   0.22046814   -1.1769022 
 1042000    39.264827   -1.3844125   0.18778896   -1.1966236 
 1043000    36.935742   -1.4571864   0.17664982   -1.2805366 
 1044000    42.257286   -1.3311967   0.20210077    -1.129096 
 1045000    42.985521   -1.3959784   0.20558364   -1.1903948 
 1046000    38.373843   -1.4127122   0.18352771   -1.2291845 
 1047000    47.812057   -1.3826504   0.22866716   -1.1539832 
 1048000    38.485466   -1.3376261   0.18406157   -1.1535645 
 1049000    45.785067   -1.3176109   0.21897282   -1.0986381 
 1050000     46.25801   -1.3813914   0.22123473   -1.1601567 
 1051000    40.434351   -1.3870618   0.19338235   -1.1936795 
 1052000     50.45319    -1.448022   0.24129871   -1.2067233 
 1053000    45.165252   -1.3992229   0.21600848   -1.1832144 
 1054000    49.445296   -1.4466764   0.23647832   -1.2101981 
 1055000    47.265103   -1.3735506   0.22605128   -1.1474993 
 1056000    34.833017   -1.4655182   0.16659327    -1.298925 
 1057000    44.440087   -1.4984158   0.21254029   -1.2858755 
 1058000    39.520375    -1.444776   0.18901115   -1.2557649 
 1059000    43.623169   -1.4636501   0.20863327   -1.2550169 
 1060000    43.779987   -1.4353489   0.20938328   -1.2259656 
 1061000    30.985867   -1.4132067   0.14819379   -1.2650129 
 1062000    45.508836    -1.447589   0.21765171   -1.2299373 
 1063000    43.778207   -1.4557072   0.20937476   -1.2463325 
 1064000    42.179818   -1.4951682   0.20173027   -1.2934379 
 1065000    41.469689   -1.4230266   0.19833399   -1.2246926 
 1066000    35.129911   -1.4939868    0.1680132   -1.3259736 
 1067000    37.707246    -1.402674   0.18033963   -1.2223344 
 1068000    35.247601   -1.4617972   0.16857607   -1.2932212 
 1069000    35.444204   -1.4582215   0.16951635   -1.2887052 
 1070000    47.684879   -1.4098597   0.22805891   -1.1818008 
 1071000    34.826774   -1.3366722   0.16656341   -1.1701088 
 1072000    40.593388    -1.340554   0.19414297    -1.146411 
 1073000    46.930199   -1.4256914   0.22444956   -1.2012418 
 1074000    41.021602    -1.507698   0.19619096   -1.3115071 
 1075000     36.22767   -1.4301961   0.17326337   -1.2569328 
 1076000     35.81581   -1.3667926    0.1712936    -1.195499 
 1077000    40.884857   -1.3995446   0.19553696   -1.2040076 
 1078000    39.710208    -1.320489   0.18991905   -1.1305699 
 1079000    35.771347   -1.3346814   0.17108095   -1.1636004 
 1080000    46.077215   -1.3893091   0.22037006    -1.168939 
 1081000    45.326638   -1.3664858   0.21678033   -1.1497055 
 1082000    35.993431   -1.4102899    0.1721431   -1.2381468 
 1083000    32.844002   -1.3897777   0.15708056   -1.2326972 
 1084000     38.11724   -1.4516867   0.18230048   -1.2693863 
 1085000    43.518356   -1.4807505   0.20813199   -1.2726185 
 1086000    40.925467   -1.4335867   0.19573118   -1.2378555 
 1087000    34.739997   -1.4345748   0.16614839   -1.2684264 
 1088000    38.409273   -1.3803544   0.18369717   -1.1966573 
 1089000    40.347058   -1.4017487   0.19296486   -1.2087839 
 1090000    46.281381   -1.4645479   0.22134651   -1.2432014 
 1091000    37.376513   -1.3823306   0.17875786   -1.2035727 
 1092000    48.577174    -1.352056   0.23232643   -1.1197296 
 1093000    36.205165   -1.4303758   0.17315574   -1.2572201 
 1094000    32.705049   -1.3697346     0.156416   -1.2133186 
 1095000    33.438512   -1.4147907   0.15992388   -1.2548668 
 1096000    48.456445   -1.4175635   0.23174902   -1.1858145 
 1097000    44.181686   -1.4288779   0.21130445   -1.2175734 
 1098000    32.566252   -1.3731294   0.15575218   -1.2173772 
 1099000    30.784619   -1.3837639    0.1472313   -1.2365326 
 1100000    41.836438    -1.428157   0.20008801    -1.228069 
 1101000    41.370374   -1.4050163     0.197859   -1.2071573 
 1102000    49.252972   -1.4655055   0.23555851    -1.229947 
 1103000    34.562024   -1.4622277   0.16529721   -1.2969305 
 1104000    32.286273   -1.4195021   0.15441315    -1.265089 
 1105000    35.629303   -1.4564058   0.17040161   -1.2860042 
 1106000    37.509919   -1.4452162   0.17939589   -1.2658203 
 1107000    32.262707   -1.4518329   0.15430044   -1.2975324 
 1108000    33.441052   -1.5137583   0.15993602   -1.3538223 
 1109000    43.743847   -1.4318569   0.20921043   -1.2226465 
 1110000    37.663353   -1.4640843   0.18012971   -1.2839546 
 1111000    44.747171   -1.4546725   0.21400896   -1.2406635 
 1112000    36.974306   -1.4592208   0.17683425   -1.2823866 
 1113000    47.496882   -1.4565968   0.22715979    -1.229437 
 1114000    39.463376   -1.5130718   0.18873855   -1.3243333 
 1115000    33.642777   -1.4573952    0.1609008   -1.2964944 
 1116000     29.60717   -1.3827032       0.1416   -1.2411032 
 1117000    34.556655   -1.4511972   0.16527154   -1.2859256 
 1118000    40.015617   -1.4148301    0.1913797   -1.2234503 
 1119000    41.547841   -1.4567032   0.19870776   -1.2579954 
 1120000    53.611032   -1.3408202   0.25640148   -1.0844187 
 1121000     35.87398    -1.468872   0.17157181   -1.2973002 
 1122000    37.814966   -1.4504552   0.18085482   -1.2696004 
 1123000    38.357384   -1.3632663     0.183449   -1.1798173 
 1124000    38.232572   -1.4755812   0.18285207   -1.2927292 
 1125000    36.415781   -1.4341935   0.17416304   -1.2600305 
 1126000    33.741033   -1.4473503   0.16137072   -1.2859796 
 1127000    33.981956   -1.4417891   0.16252297   -1.2792661 
 1128000    37.407606   -1.4814326   0.17890657    -1.302526 
 1129000    31.773093   -1.4485315    0.1519588   -1.2965727 
 1130000    44.981497   -1.4196242   0.21512965   -1.2044946 
 1131000    50.249551   -1.4003901   0.24032478   -1.1600654 
 1132000     38.69453   -1.4114459   0.18506144   -1.2263845 
 1133000     52.33283   -1.3823874   0.25028832    -1.132099 
 1134000    37.869575    -1.308384   0.18111599    -1.127268 
 1135000    34.243098   -1.2827754   0.16377191   -1.1190035 
 1136000    51.676796    -1.400559   0.24715076   -1.1534082 
 1137000    37.084755   -1.4373587   0.17736249   -1.2599962 
 1138000    38.939367   -1.3291261    0.1862324   -1.1428937 
 1139000    45.097517   -1.3974806   0.21568453   -1.1817961 
 1140000    40.629161   -1.4295308   0.19431405   -1.2352168 
 1141000    38.193784    -1.452316   0.18266656   -1.2696495 
 1142000    31.071743   -1.4123632    0.1486045   -1.2637586 
 1143000     32.90438   -1.3788515   0.15736932   -1.2214822 
 1144000    38.298196   -1.3835924   0.18316592   -1.2004265 
 1145000    38.103596   -1.4053697   0.18223522   -1.2231345 
 1146000    39.853931   -1.3926511   0.19060642   -1.2020447 
 1147000    35.712139   -1.3335992   0.17079778   -1.1628014 
 1148000    33.115802   -1.4603365   0.15838047    -1.301956 
 1149000    38.776355   -1.4115206   0.18545278   -1.2260678 
 1150000    34.716421   -1.4344167   0.16603564   -1.2683811 
 1151000    31.929773   -1.3967213   0.15270814   -1.2440132 
 1152000    36.478887   -1.3608672   0.17446485   -1.1864023 
 1153000    44.379282   -1.4512051   0.21224948   -1.2389556 
 1154000    35.629129   -1.4261163   0.17040078   -1.2557155 
 1155000    41.497074   -1.3359504   0.19846496   -1.1374854 
 1156000    38.499287    -1.381879   0.18412767   -1.1977513 
 1157000    46.804943   -1.3953178   0.22385051   -1.1714673 
 1158000    45.993057    -1.428233   0.21996756   -1.2082654 
 1159000    44.641537   -1.4048971   0.21350375   -1.1913934 
 1160000    43.467521    -1.424567   0.20788887   -1.2166781 
 1161000     38.95226   -1.4422019   0.18629407   -1.2559079 
 1162000    37.452343   -1.4884614   0.17912052   -1.3093409 
 1163000    34.768905   -1.3651254   0.16628665   -1.1988388 
 1164000    37.670884   -1.3818795   0.18016573   -1.2017138 
 1165000    31.141937   -1.5144063   0.14894022   -1.3654661 
 1166000    29.750396   -1.4675278     0.142285   -1.3252428 
 1167000     34.36658   -1.5138999   0.16436248   -1.3495374 
 1168000    24.575738     -1.47783   0.11753655   -1.3602934 
 1169000    38.466201   -1.5273626   0.18396943   -1.3433932 
 1170000    18.633387   -1.5406677  0.089116507   -1.4515512 
 1171000    42.775188    -1.459581    0.2045777   -1.2550033 
 1172000    23.304725    -1.491094   0.11145777   -1.3796363 
 1173000    31.542796    -1.549844   0.15085738   -1.3989866 
 1174000    32.283343   -1.4589139   0.15439913   -1.3045147 
 1175000    32.626395   -1.5037199   0.15603983   -1.3476801 
 1176000    37.449244   -1.5104237    0.1791057    -1.331318 
 1177000    33.251807   -1.5062432   0.15903093   -1.3472122 
 1178000    32.858871   -1.5114138   0.15715167   -1.3542621 
 1179000    30.828474   -1.5149973   0.14744104   -1.3675563 
 1180000    27.592551   -1.5264546   0.13196483   -1.3944898 
 1181000    33.438017   -1.4657602   0.15992151   -1.3058387 
 1182000    27.852528   -1.5626283   0.13320821   -1.4294201 
 1183000    31.344368   -1.5342112   0.14990837   -1.3843029 
 1184000    28.654052    -1.541727    0.1370416   -1.4046854 
 1185000    29.143123   -1.5881575   0.13938064   -1.4487769 
 1186000    26.927358   -1.5311837   0.12878346   -1.4024002 
 1187000    28.691555   -1.5602539   0.13722096    -1.423033 
 1188000    28.754161    -1.580397   0.13752038   -1.4428767 
 1189000    34.418803   -1.5810088   0.16461224   -1.4163966 
 1190000    25.187009    -1.562984   0.12046003   -1.4425239 
 1191000    25.513867   -1.5598752   0.12202327    -1.437852 
 1192000    23.387726   -1.5771517   0.11185473    -1.465297 
 1193000    23.136309   -1.5971142    0.1106523   -1.4864619 
 1194000    21.164005   -1.6094339   0.10121951   -1.5082143 
 1195000     23.99943   -1.6372808   0.11478028   -1.5225006 
 1196000    28.354714   -1.6068097   0.13560997   -1.4711997 
 1197000    17.668843   -1.5726167  0.084503459   -1.4881133 
 1198000    23.702535   -1.6007521   0.11336035   -1.4873917 
 1199000    20.321824   -1.6165596  0.097191671   -1.5193679 
 1200000    19.911675   -1.6161888  0.095230083   -1.5209588 
 1201000    14.485562   -1.6014611  0.069279017   -1.5321821 
 1202000    22.311785    -1.583459   0.10670891   -1.4767501 
 1203000    21.344745   -1.5639003   0.10208392   -1.4618163 
 1204000    23.981462   -1.6363268   0.11469435   -1.5216324 
 1205000    24.848536   -1.5802554   0.11884124   -1.4614142 
 1206000    25.973171   -1.5756327   0.12421995   -1.4514128 
 1207000    33.747951   -1.5800512   0.16140381   -1.4186474 
 1208000    31.855576    -1.497112   0.15235329   -1.3447587 
 1209000    31.904872   -1.4988342   0.15258905   -1.3462451 
 1210000    35.157878   -1.5531934   0.16814696   -1.3850464 
 1211000    34.839766   -1.5347522   0.16662555   -1.3681267 
 1212000    24.112813   -1.5576987   0.11532255   -1.4423761 
 1213000    31.735764    -1.541053   0.15178027   -1.3892727 
 1214000     31.52918   -1.5171714   0.15079225   -1.3663791 
 1215000    33.843745   -1.5112583   0.16186195   -1.3493963 
 1216000    29.977233   -1.5704834   0.14336987   -1.4271136 
 1217000    33.058576   -1.5048907   0.15810678   -1.3467839 
 1218000    34.683959   -1.5650313   0.16588038   -1.3991509 
 1219000     33.65993   -1.5259024   0.16098284   -1.3649195 
 1220000    34.777058   -1.5186489   0.16632564   -1.3523232 
 1221000     32.65743    -1.609029   0.15618825   -1.4528407 
 1222000    24.567176   -1.5544816    0.1174956    -1.436986 
 1223000    32.219468   -1.6131282   0.15409364   -1.4590345 
 1224000    27.214508   -1.6073302   0.13015679   -1.4771734 
 1225000    30.535593    -1.601828    0.1460403   -1.4557877 
 1226000    27.745032   -1.5968266    0.1326941   -1.4641325 
 1227000    25.170673   -1.5988202    0.1203819   -1.4784383 
 1228000    30.653858   -1.5734187   0.14660592   -1.4268128 
 1229000    23.935528   -1.6045996   0.11447466   -1.4901249 
 1230000     24.16505    -1.629945   0.11557238   -1.5143726 
 1231000    20.792157   -1.6445011  0.099441096     -1.54506 
 1232000    25.569609   -1.6429687   0.12228986   -1.5206788 
 1233000    24.395537   -1.6630381   0.11667471   -1.5463634 
 1234000    22.046554   -1.6307682   0.10544041   -1.5253278 
 1235000     22.08715   -1.6420095   0.10563456   -1.5363749 
 1236000    20.615578   -1.6498048  0.098596586   -1.5512082 
 1237000    24.106913   -1.6136138   0.11529434   -1.4983195 
 1238000     23.35601   -1.5993332   0.11170305   -1.4876301 
 1239000    19.230265   -1.5993922  0.091971152   -1.5074211 
 1240000    24.441886   -1.5923081   0.11689638   -1.4754117 
 1241000    27.566984   -1.6168072   0.13184256   -1.4849647 
 1242000    23.115159   -1.6546113   0.11055114   -1.5440601 
 1243000    21.733551   -1.6241791   0.10394343   -1.5202357 
 1244000    18.530822   -1.6349647  0.088625977   -1.5463387 
 1245000    24.348781   -1.6112973    0.1164511   -1.4948462 
 1246000    24.893978   -1.6621621   0.11905857   -1.5431035 
 1247000     20.99548   -1.6278416   0.10041352   -1.5274281 
 1248000    21.876066   -1.6229131   0.10462503   -1.5182881 
 1249000    28.726034   -1.6252629   0.13738586    -1.487877 
 1250000    15.910905   -1.6297673  0.076095896   -1.5536714 
 1251000    19.975102   -1.6376164  0.095533429    -1.542083 
 1252000    25.244115     -1.63885   0.12073315   -1.5181168 
 1253000    23.855403   -1.6092031   0.11409146   -1.4951117 
 1254000    23.898251   -1.6516515   0.11429638   -1.5373551 
 1255000    27.769741   -1.6455605   0.13281227   -1.5127483 
 1256000    18.969397    -1.616837  0.090723519   -1.5261135 
 1257000    24.839103   -1.6488041   0.11879612    -1.530008 
 1258000    22.303793   -1.6156596   0.10667069   -1.5089889 
 1259000    19.954959   -1.6462983  0.095437095   -1.5508612 
 1260000    23.587114   -1.6317992   0.11280833   -1.5189909 
 1261000    24.300064   -1.6437702    0.1162181   -1.5275521 
 1262000    21.284762   -1.6221527   0.10179704   -1.5203556 
 1263000    23.573812   -1.5736584   0.11274471   -1.4609137 
 1264000    31.613706   -1.6087333   0.15119651   -1.4575368 
[...]
 4698000    29.439786   -1.4979671   0.14079947   -1.3571676 
 4699000     35.01282   -1.5587646    0.1674532   -1.3913114 
 4700000    31.297979   -1.5544955   0.14968651    -1.404809 
 4701000    28.203571   -1.5606089   0.13488711   -1.4257218 
 4702000    35.515443   -1.5454102   0.16985706   -1.3755532 
 4703000    28.302504   -1.5232131   0.13536027   -1.3878528 
 4704000    32.914188   -1.6023374   0.15741623   -1.4449212 
 4705000    28.281794   -1.5290321   0.13526122   -1.3937708 
 4706000    42.074145   -1.5168778   0.20122487   -1.3156529 
 4707000    32.059128   -1.5659591    0.1533268   -1.4126323 
 4708000    24.501785   -1.6044364   0.11718286   -1.4872535 
 4709000    26.999322   -1.5633188   0.12912764   -1.4341911 
 4710000    37.745606   -1.5248035   0.18052309   -1.3442804 
 4711000    36.100615   -1.5071081   0.17265572   -1.3344524 
 4712000    32.801905    -1.576743   0.15687922   -1.4198638 
 4713000    29.355556   -1.4910781   0.14039663   -1.3506814 
 4714000    40.414392   -1.5043314   0.19328689   -1.3110445 
 4715000    37.031552   -1.5243334   0.17710804   -1.3472254 
 4716000    28.338977   -1.5086275   0.13553471   -1.3730928 
 4717000    39.096991   -1.5567077   0.18698626   -1.3697215 
 4718000    28.050464   -1.5460283   0.13415486   -1.4118734 
 4719000    34.674895    -1.523873   0.16583703    -1.358036 
 4720000    28.603484   -1.5345495   0.13679975   -1.3977498 
 4721000    35.200935    -1.503168   0.16835289   -1.3348151 
 4722000    31.934636   -1.5414216    0.1527314   -1.3886902 
 4723000    28.951056   -1.5521348   0.13846206   -1.4136727 
 4724000    30.098864   -1.5438257   0.14395159   -1.3998741 
 4725000    36.502323   -1.4755099   0.17457694   -1.3009329 
 4726000    38.074759   -1.3979688   0.18209731   -1.2158715 
 4727000     41.74033   -1.4572999   0.19962836   -1.2576716 
 4728000    45.271807   -1.4803108   0.21651809   -1.2637927 
 4729000    43.598959   -1.4668811   0.20851749   -1.2583636 
 4730000    34.025131    -1.556114   0.16272946   -1.3933845 
 4731000      34.5192   -1.5218674    0.1650924    -1.356775 
 4732000    32.231516   -1.4437688   0.15415127   -1.2896175 
 4733000     46.92588   -1.4543908    0.2244289   -1.2299618 
 4734000    41.912303   -1.3656928   0.20045084   -1.1652419 
 4735000    37.969938   -1.5035779   0.18159599   -1.3219819 
 4736000    26.433883    -1.494726   0.12642336   -1.3683026 
 4737000    30.453825   -1.4770434   0.14564923   -1.3313942 
 4738000    31.684321   -1.4723788   0.15153424   -1.3208445 
 4739000    35.888799   -1.5093225   0.17164268   -1.3376798 
 4740000    35.565474   -1.5474569   0.17009634   -1.3773605 
 4741000    35.796014   -1.5501009   0.17119893   -1.3789019 
 4742000    42.684099   -1.5805289   0.20414206   -1.3763868 
 4743000    36.663241   -1.5356057   0.17534655   -1.3602591 
 4744000    37.069656   -1.5553472   0.17729027    -1.378057 
 4745000    43.179879   -1.5591519   0.20651319   -1.3526387 
 4746000    40.260638   -1.4750985   0.19255155   -1.2825469 
 4747000    45.276088   -1.4803927   0.21653856   -1.2638541 
 4748000    43.252067   -1.4969267   0.20685844   -1.2900683 
 4749000    54.795148   -1.4942626   0.26206467    -1.232198 
 4750000    36.930622   -1.5034374   0.17662533    -1.326812 
 4751000    36.855726   -1.4803627   0.17626713   -1.3040956 
 4752000    34.762261   -1.5634179   0.16625487    -1.397163 
 4753000    36.381663   -1.5521214   0.17399986   -1.3781215 
 4754000    35.773322   -1.4768812    0.1710904   -1.3057908 
 4755000    26.180875    -1.500628   0.12521332   -1.3754147 
 4756000    38.772407   -1.5296123    0.1854339   -1.3441785 
 4757000    38.152456   -1.4970957   0.18246891   -1.3146268 
 4758000    25.814508   -1.5269127   0.12346112   -1.4034516 
 4759000    36.318797   -1.4971888    0.1736992   -1.3234896 
 4760000    30.317831   -1.5038669   0.14499883   -1.3588681 
 4761000    39.906135   -1.4966781   0.19085609    -1.305822 
 4762000    39.544557   -1.5329263    0.1891268   -1.3437995 
 4763000    34.274253   -1.5655916   0.16392091   -1.4016706 
 4764000    22.167405   -1.4992547   0.10601839   -1.3932363 
 4765000    32.232394   -1.5561425   0.15415547    -1.401987 
 4766000    30.275579      -1.5286   0.14479675   -1.3838033 
 4767000    29.712077   -1.5340123   0.14210173   -1.3919106 
 4768000    33.437948   -1.5062822   0.15992118    -1.346361 
 4769000    26.594164   -1.5275256   0.12718992   -1.4003357 
 4770000    37.712406   -1.5398785   0.18036431   -1.3595142 
 4771000    33.569513   -1.4971807    0.1605504   -1.3366303 
 4772000    29.687622   -1.5353486   0.14198477   -1.3933638 
 4773000     24.86996   -1.5210723    0.1189437   -1.4021286 
 4774000     31.74009   -1.5319955   0.15180096   -1.3801945 
 4775000       36.936   -1.5347683   0.17665105   -1.3581172 
 4776000    43.187498   -1.4980341   0.20654963   -1.2914845 
 4777000    30.072815   -1.5298606   0.14382701   -1.3860335 
 4778000    41.093971    -1.538384   0.19653707    -1.341847 
 4779000    35.842067   -1.5320461   0.17141918    -1.360627 
 4780000    26.509207   -1.4696087   0.12678361   -1.3428251 
 4781000    28.263344   -1.5247652   0.13517299   -1.3895922 
 4782000    38.441437   -1.4892539   0.18385099   -1.3054029 
 4783000    32.501306    -1.544198   0.15544157   -1.3887564 
 4784000    31.680953   -1.5495619   0.15151813   -1.3980438 
 4785000    27.848339   -1.5419382   0.13318817     -1.40875 
 4786000    29.916194   -1.5683081   0.14307795   -1.4252302 
 4787000    33.798214    -1.459707    0.1616442   -1.2980628 
 4788000    33.378169   -1.4711474   0.15963528   -1.3115122 
 4789000    40.372785   -1.5131015   0.19308791   -1.3200136 
 4790000    40.167067   -1.4914668   0.19210403   -1.2993628 
 4791000    29.426581    -1.524102   0.14073631   -1.3833657 
 4792000    36.816782    -1.497353   0.17608088   -1.3212722 
 4793000    35.320247   -1.5244309   0.16892351   -1.3555074 
 4794000    29.582946   -1.5209935   0.14148415   -1.3795093 
 4795000    32.352838   -1.4877881    0.1547315   -1.3330566 
 4796000     30.73133   -1.4688697   0.14697644   -1.3218932 
 4797000    29.296495   -1.4748534   0.14011416   -1.3347392 
 4798000    34.280423   -1.5233897   0.16395042   -1.3594393 
 4799000    29.386659    -1.512881   0.14054538   -1.3723356 
 4800000    32.824319   -1.4381497   0.15698642   -1.2811633 
 4801000     50.13623    -1.437174   0.23978281   -1.1973912 
 4802000    41.893058   -1.4740743    0.2003588   -1.2737155 
 4803000    49.158689   -1.4504236   0.23510759    -1.215316 
 4804000    32.943902   -1.4694966   0.15755834   -1.3119383 
 4805000    47.251115   -1.5014618   0.22598438   -1.2754774 
 4806000    36.242438   -1.4401545     0.173334   -1.2668205 
 4807000    36.076382   -1.4388979   0.17253982   -1.2663581 
 4808000    47.296789   -1.4752539   0.22620282   -1.2490511 
 4809000     29.10003   -1.4668762   0.13917454   -1.3277017 
 4810000    41.699658   -1.4031092   0.19943384   -1.2036754 
 4811000    36.657619   -1.3825958   0.17531966   -1.2072762 
 4812000    36.057935     -1.33424    0.1724516   -1.1617884 
 4813000    41.403951   -1.4150439   0.19801958   -1.2170243 
 4814000    44.336547   -1.4567273   0.21204509   -1.2446822 
 4815000    38.988249   -1.4201935   0.18646619   -1.2337273 
 4816000    27.553452   -1.5276636   0.13177784   -1.3958858 
 4817000    26.558256   -1.5289101   0.12701819   -1.4018919 
 4818000     37.92373   -1.5102477   0.18137499   -1.3288727 
 4819000    31.903306   -1.5077986   0.15258156   -1.3552171 
 4820000    37.724313   -1.4984372   0.18042126    -1.318016 
 4821000    33.658591   -1.5501134   0.16097643    -1.389137 
 4822000     31.85562   -1.5277263   0.15235349   -1.3753728 
 4823000    34.865109   -1.5306535   0.16674675   -1.3639067 
 4824000    37.632977   -1.5136234   0.17998443    -1.333639 
 4825000     37.98766   -1.5133577   0.18168075    -1.331677 
 4826000    28.067603   -1.5222197   0.13423683   -1.3879828 
 4827000    33.718462   -1.4591996   0.16126277   -1.2979369 
 4828000    26.661437   -1.5428137   0.12751166    -1.415302 
 4829000    44.558831   -1.4932058   0.21310819   -1.2800976 
 4830000    40.907842   -1.4660465   0.19564688   -1.2703996 
 4831000    46.584487   -1.4631409   0.22279615   -1.2403448 
 4832000      37.7712   -1.4305874    0.1806455   -1.2499419 
 4833000    47.815061   -1.4463549   0.22868153   -1.2176734 
 4834000    33.604046   -1.4604804   0.16071556   -1.2997649 
 4835000    40.128568   -1.4652128   0.19191991   -1.2732928 
 4836000    46.798631   -1.4341729   0.22382032   -1.2103526 
 4837000    35.598581    -1.514718   0.17025468   -1.3444634 
 4838000    44.528428   -1.4270848   0.21296279    -1.214122 
 4839000    38.204208   -1.4795432   0.18271641   -1.2968267 
 4840000    46.385547   -1.4578284    0.2218447   -1.2359837 
 4841000    41.877405   -1.4474221   0.20028394   -1.2471382 
 4842000    33.351165   -1.4115891   0.15950613    -1.252083 
 4843000    28.642983   -1.3866711   0.13698866   -1.2496824 
 4844000    44.479144   -1.4532946   0.21272708   -1.2405675 
 4845000    37.837766   -1.4075278   0.18096386    -1.226564 
 4846000    41.732218   -1.4125632   0.19958957   -1.2129736 
 4847000    28.836337   -1.4453842    0.1379134   -1.3074708 
 4848000    39.892227   -1.4341225   0.19078958    -1.243333 
 4849000    30.323708   -1.3286189   0.14502693    -1.183592 
 4850000     32.64921   -1.3764113   0.15614894   -1.2202623 
 4851000    44.180407   -1.4256872   0.21129834   -1.2143889 
 4852000    40.765193   -1.4386782   0.19496465   -1.2437136 
 4853000    42.903349   -1.4542695   0.20519064   -1.2490789 
 4854000    38.658485   -1.4072394   0.18488905   -1.2223503 
 4855000    39.034228   -1.4579235   0.18668609   -1.2712374 
 4856000    39.087211   -1.4462126   0.18693949   -1.2592731 
 4857000    37.191814   -1.4723402   0.17787451   -1.2944657 
 4858000    34.557972   -1.4437236   0.16527783   -1.2784457 
 4859000    38.164635   -1.3721506   0.18252715   -1.1896234 
 4860000    47.386477   -1.4284835   0.22663177   -1.2018518 
 4861000     41.84375    -1.461129   0.20012298    -1.261006 
 4862000    46.427706   -1.4322594   0.22204633    -1.210213 
 4863000    38.853612   -1.4659184   0.18582227   -1.2800962 
 4864000    40.417439   -1.4338708   0.19330147   -1.2405693 
 4865000    53.710122   -1.4200552   0.25687539   -1.1631798 
 4866000    40.194073   -1.4290663   0.19223319   -1.2368331 
 4867000    49.855135   -1.4658387   0.23843843   -1.2274003 
 4868000    44.096698   -1.4772319   0.21089798   -1.2663339 
 4869000     42.48659    -1.412254   0.20319744   -1.2090565 
 4870000    38.080138   -1.4791422   0.18212303   -1.2970191 
 4871000    41.060643   -1.4460757   0.19637767    -1.249698 
 4872000    33.708025   -1.4258708   0.16121286   -1.2646579 
 4873000    35.037403   -1.4222235   0.16757077   -1.2546528 
 4874000    50.568576   -1.3909068   0.24185055   -1.1490563 
 4875000      43.2537   -1.4698294   0.20686624   -1.2629632 
 4876000    43.073603   -1.4396407   0.20600491   -1.2336358 
 4877000    39.349339   -1.4097461   0.18819315   -1.2215529 
 4878000     32.51758   -1.4411094    0.1555194     -1.28559 
 4879000    41.897541   -1.4658651   0.20038024   -1.2654849 
 4880000    37.652514   -1.4153802   0.18007787   -1.2353023 
 4881000      43.6422   -1.4318085   0.20872429   -1.2230842 
 4882000    38.852949   -1.3923472    0.1858191   -1.2065281 
 4883000    49.527065   -1.4329875    0.2368694   -1.1961181 
 4884000    39.238467   -1.4734246   0.18766289   -1.2857617 
 4885000    35.197566   -1.4138076   0.16833677   -1.2454708 
 4886000    38.389997    -1.495946   0.18360497    -1.312341 
 4887000    48.049737   -1.3831819   0.22980389    -1.153378 
 4888000    46.555025   -1.4010845   0.22265524   -1.1784293 
 4889000    39.990721   -1.4111583   0.19126064   -1.2198977 
 4890000    37.254309   -1.4058515    0.1781734   -1.2276781 
 4891000     37.93989   -1.3205972   0.18145228    -1.139145 
 4892000    39.287015   -1.4260377   0.18789508   -1.2381426 
 4893000    45.937317   -1.3580028   0.21970098   -1.1383018 
 4894000    47.715087   -1.4754576   0.22820338   -1.2472542 
 4895000    40.722209   -1.4707874   0.19475907   -1.2760283 
 4896000    35.866709   -1.4258009   0.17153703   -1.2542638 
 4897000    38.373885    -1.453266   0.18352791   -1.2697381 
 4898000    35.507047   -1.4181225    0.1698169   -1.2483056 
 4899000     33.93042    -1.482831   0.16227649   -1.3205545 
 4900000    31.035119   -1.4415937   0.14842935   -1.2931643 
 4901000    36.860896   -1.4466728   0.17629186    -1.270381 
 4902000    42.859146   -1.4983406   0.20497924   -1.2933614 
 4903000     31.74455   -1.5723091   0.15182229   -1.4204868 
 4904000    38.500838   -1.5579856   0.18413509   -1.3738506 
 4905000    26.043954   -1.4732769   0.12455847   -1.3487185 
 4906000    30.574325   -1.5389957   0.14622554   -1.3927701 
 4907000    35.584611   -1.5113956   0.17018786   -1.3412078 
 4908000    36.095462   -1.4795437   0.17263107   -1.3069126 
 4909000    31.553333   -1.5022178   0.15090777     -1.35131 
 4910000    38.628311   -1.5895593   0.18474474   -1.4048146 
 4911000    29.845837   -1.5984912   0.14274146   -1.4557497 
 4912000    22.764919   -1.5735099   0.10887608   -1.4646338 
 4913000    27.900313   -1.5709346   0.13343675   -1.4374978 
 4914000    27.613857   -1.4853812   0.13206673   -1.3533145 
 4915000    32.580536   -1.4668101    0.1558205   -1.3109896 
 4916000    39.427288   -1.5032646   0.18856595   -1.3146986 
 4917000    37.006357   -1.5086645   0.17698754   -1.3316769 
 4918000    33.883447     -1.50018   0.16205183   -1.3381282 
 4919000    24.867042   -1.4694128   0.11892975    -1.350483 
 4920000    36.291179    -1.532351   0.17356711   -1.3587839 
 4921000    33.515534   -1.5303632   0.16029224    -1.370071 
 4922000     37.01503   -1.5017034   0.17702902   -1.3246744 
 4923000    39.682101   -1.5432547   0.18978462   -1.3534701 
 4924000    32.880205   -1.5283316    0.1572537   -1.3710779 
 4925000    25.123751   -1.5537024   0.12015749   -1.4335449 
 4926000    26.787436   -1.5240829   0.12811427   -1.3959686 
 4927000    27.974845   -1.5242545    0.1337932   -1.3904613 
 4928000    32.477313   -1.5542579   0.15532682   -1.3989311 
 4929000    34.188825    -1.530327   0.16351234   -1.3668147 
 4930000    32.503131   -1.4923679    0.1554503   -1.3369176 
 4931000    29.570809   -1.4923924    0.1414261   -1.3509663 
 4932000    27.571022   -1.5167478   0.13186187   -1.3848859 
 4933000    32.924657   -1.4667421    0.1574663   -1.3092758 
 4934000    32.320347   -1.4752407   0.15457611   -1.3206646 
 4935000    36.115549   -1.4373793   0.17272714   -1.2646522 
 4936000    35.755557   -1.4459675   0.17100543   -1.2749621 
 4937000    34.142363   -1.4420965   0.16329013   -1.2788063 
 4938000    39.181113   -1.4308524   0.18738859   -1.2434638 
 4939000    36.378696   -1.4961003   0.17398567   -1.3221146 
 4940000    50.867981   -1.4862359   0.24328249   -1.2429534 
 4941000    40.246228    -1.416181   0.19248263   -1.2236984 
 4942000    37.160555   -1.4633368   0.17772501   -1.2856118 
 4943000    33.539313   -1.4493122   0.16040597   -1.2889063 
 4944000    36.800287   -1.5007379   0.17600199   -1.3247359 
 4945000    44.823432   -1.4887553   0.21437368   -1.2743817 
 4946000    37.178056   -1.4518319   0.17780872   -1.2740232 
 4947000    42.222044   -1.4159038   0.20193222   -1.2139716 
 4948000    29.664152   -1.4156568   0.14187252   -1.2737843 
 4949000    37.656553    -1.441629   0.18009719   -1.2615318 
 4950000    40.241354   -1.4599766   0.19245932   -1.2675173 
 4951000    24.160092   -1.5056821   0.11554867   -1.3901334 
 4952000    34.762915   -1.5110469     0.166258   -1.3447889 
 4953000    41.190289   -1.5475507   0.19699772   -1.3505529 
 4954000    31.652839   -1.5353683   0.15138367   -1.3839847 
 4955000    36.026152   -1.4814412   0.17229959   -1.3091416 
 4956000    40.493887   -1.4889128   0.19366709   -1.2952457 
 4957000    25.383273   -1.4734668   0.12139868   -1.3520681 
 4958000    35.511596   -1.5174077   0.16983866    -1.347569 
 4959000    41.279737   -1.5503213   0.19742552   -1.3528958 
 4960000    47.401649   -1.5414788   0.22670433   -1.3147744 
 4961000    30.711108   -1.5046498   0.14687972   -1.3577701 
 4962000    32.782122   -1.5111302   0.15678461   -1.3543456 
 4963000    34.533102   -1.5257969   0.16515889    -1.360638 
 4964000     31.09762    -1.481344   0.14872827   -1.3326157 
 4965000    33.737507   -1.5603526   0.16135386   -1.3989987 
 4966000    24.121509   -1.5742871   0.11536414    -1.458923 
 4967000    30.753051   -1.5513451   0.14708032   -1.4042648 
 4968000    32.827391   -1.4938699   0.15700111   -1.3368688 
 4969000    32.585227   -1.5410757   0.15584293   -1.3852327 
 4970000    38.368213   -1.5532052   0.18350079   -1.3697045 
 4971000    37.159459    -1.520643   0.17771977   -1.3429232 
 4972000    31.693893   -1.5411799   0.15158002   -1.3895999 
 4973000    31.169709   -1.5980808   0.14907304   -1.4490077 
 4974000    32.069681   -1.5847735   0.15337727   -1.4313963 
 4975000    21.928694   -1.5905057   0.10487673    -1.485629 
 4976000    27.413028   -1.6027841   0.13110624   -1.4716779 
 4977000    24.820263   -1.5743914   0.11870602   -1.4556854 
 4978000    28.851759   -1.5834877   0.13798716   -1.4455006 
 4979000    25.193194   -1.6071223   0.12048961   -1.4866327 
 4980000    22.599239   -1.6228547   0.10808369    -1.514771 
 4981000     21.59112   -1.6139969   0.10326224   -1.5107347 
 4982000    19.860977   -1.6199335  0.094987611   -1.5249459 
 4983000    22.902831   -1.5908534   0.10953566   -1.4813177 
 4984000    24.724483   -1.5722486   0.11824794   -1.4540007 
 4985000     30.62649   -1.5436626   0.14647503   -1.3971876 
 4986000    38.336966   -1.5523123   0.18335135   -1.3689609 
 4987000    26.259948    -1.573724    0.1255915   -1.4481325 
 4988000    33.511226   -1.5597716   0.16027164      -1.3995 
 4989000     27.63116     -1.57535   0.13214948   -1.4432005 
 4990000      31.5986   -1.5821074   0.15112427   -1.4309831 
 4991000    26.115034   -1.5363587   0.12489842   -1.4114603 
 4992000    38.325793   -1.5440775   0.18329791   -1.3607795 
 4993000    36.490357   -1.5272244   0.17451971   -1.3527047 
 4994000    35.827512   -1.5652474   0.17134957   -1.3938978 
 4995000    39.018066     -1.55999   0.18660879   -1.3733812 
 4996000    32.365119   -1.5726325   0.15479024   -1.4178422 
 4997000    22.113975   -1.5658093   0.10576286   -1.4600464 
 4998000    20.863199   -1.5542034  0.099780864   -1.4544225 
 4999000    27.457092   -1.5538757   0.13131699   -1.4225587 
 5000000    37.002616    -1.558612   0.17696965   -1.3816423 
Loop time of 1276.16 on 1 procs for 5000000 steps with 38 atoms

Performance: 338.516 ns/day, 0.071 hours/ns, 3918.010 timesteps/s
97.7% CPU use with 1 MPI tasks x no OpenMP threads

MPI task timing breakdown:
Section |  min time  |  avg time  |  max time  |%varavg| %total
---------------------------------------------------------------
Pair    | 1219.4     | 1219.4     | 1219.4     |   0.0 | 95.55
Neigh   | 0.002218   | 0.002218   | 0.002218   |   0.0 |  0.00
Comm    | 1.2261     | 1.2261     | 1.2261     |   0.0 |  0.10
Output  | 0.22919    | 0.22919    | 0.22919    |   0.0 |  0.02
Modify  | 16.708     | 16.708     | 16.708     |   0.0 |  1.31
Other   |            | 38.62      |            |       |  3.03

Nlocal:        38.0000 ave          38 max          38 min
Histogram: 1 0 0 0 0 0 0 0 0 0
Nghost:        0.00000 ave           0 max           0 min
Histogram: 1 0 0 0 0 0 0 0 0 0
Neighs:        0.00000 ave           0 max           0 min
Histogram: 1 0 0 0 0 0 0 0 0 0

Total # of neighbors = 0
Ave neighs/atom = 0.0000000
Neighbor list builds = 9517
Dangerous builds = 0
neighbor            0.3        bin


Total wall time: 0:21:16
