LAMMPS (29 Oct 2020)
Processor partition = 11
package gpu 1
# Initialization
units            metal
dimension        3
boundary         p p p
atom_style       atomic

#
#  region for the wall
#

region rs sphere 0 0 0 12.66

read_data        input.dat
Reading data file ...
  orthogonal box = (-50.000000 -50.000000 -50.000000) to (50.000000 50.000000 50.000000)
  1 by 1 by 1 MPI processor grid
  reading atoms ...
  38 atoms
  read_data CPU = 0.010 seconds

mass 1 39.948

pair_style lj/cut 8.5
pair_coeff 1 1 0.01042 3.405  8.5
variable i equal part

variable t world  2.00    2.60    3.64    5    6.63    9.12   12.07   16   21.97   26.83   32.76   40.00
velocity        all        create        $t        293288
velocity        all        create        40.00        293288
velocity all zero linear
velocity all zero angular
fix        1        all        nvt        temp        $t        $t        0.1
fix        1        all        nvt        temp        40.00        $t        0.1
fix        1        all        nvt        temp        40.00        40.00        0.1
fix  2 all wall/region rs harmonic 2.0 0.0 0.4


thermo         1000
thermo_style        custom        step  temp     pe ke etotal
thermo_modify       line        one

restart 5000000 restart.*
dump         2 all xyz 10000 structure_$i.xyz
dump         2 all xyz 10000 structure_11.xyz
dump_modify  2 element "Ar" sort id

temper 5000000 1000 $t 1 3678 3490
temper 5000000 1000 40.00 1 3678 3490
Per MPI rank memory allocation (min/avg/max) = 3.436 | 3.436 | 3.436 Mbytes
Step Temp PotEng KinEng TotEng 
       0     39.68709   -1.7950808   0.18980848   -1.6052723 
    1000    45.405188   -1.3937444     0.217156   -1.1765884 
    2000    53.175283   -1.4933568   0.25431746   -1.2390393 
    3000    52.099204   -1.4766649   0.24917097    -1.227494 
    4000    41.357238   -1.4872901   0.19779618   -1.2894939 
    5000    41.950144   -1.3923273   0.20063182   -1.1916955 
    6000      46.5529   -1.4225761   0.22264508    -1.199931 
    7000    46.366463   -1.4209415   0.22175342    -1.199188 
    8000    39.468029   -1.4744084    0.1887608   -1.2856476 
    9000    41.196284    -1.497184   0.19702639   -1.3001576 
   10000    36.268536   -1.4095651   0.17345882   -1.2361063 
   11000    36.912399   -1.4668272   0.17653817    -1.290289 
   12000    34.262871   -1.4688022   0.16386648   -1.3049358 
   13000    44.457709   -1.4873782   0.21262457   -1.2747536 
   14000    42.823655   -1.4938904    0.2048095   -1.2890809 
   15000    36.074742   -1.4762191   0.17253198   -1.3036872 
   16000    35.354205   -1.4234089   0.16908592    -1.254323 
   17000    40.428549   -1.4228256    0.1933546    -1.229471 
   18000    35.292712   -1.5411699   0.16879182   -1.3723781 
   19000    28.730096   -1.5455052   0.13740529   -1.4080999 
   20000    28.849477    -1.543967   0.13797624   -1.4059908 
   21000    28.062389   -1.5344529   0.13421189    -1.400241 
   22000     32.34279   -1.5074336   0.15468345   -1.3527501 
   23000    29.667032   -1.5550771    0.1418863   -1.4131908 
   24000    33.879426   -1.5116311    0.1620326   -1.3495984 
   25000    38.843798   -1.5301909   0.18577533   -1.3444156 
   26000    36.051361   -1.5398146   0.17242016   -1.3673945 
   27000    22.822419   -1.5226266   0.10915108   -1.4134755 
   28000    37.009591   -1.4987169   0.17700301   -1.3217139 
   29000    40.435917   -1.5324488   0.19338984    -1.339059 
   30000    34.629044   -1.5465405   0.16561774   -1.3809228 
   31000      34.8445   -1.4610864   0.16664819   -1.2944382 
   32000    34.915485   -1.4571547   0.16698769    -1.290167 
   33000    25.593731   -1.5647813   0.12240523   -1.4423761 
   34000    31.779466   -1.4801032   0.15198928   -1.3281139 
   35000    27.437405   -1.5346159   0.13122283   -1.4033931 
   36000    37.064662   -1.4849953   0.17726639   -1.3077289 
   37000    41.456234   -1.4925147   0.19826964   -1.2942451 
   38000    34.202063   -1.5099716   0.16357565    -1.346396 
   39000    30.385583   -1.5041962   0.14532286   -1.3588733 
   40000    33.425562   -1.5025063   0.15986194   -1.3426444 
   41000    31.915883   -1.5036469   0.15264171   -1.3510052 
   42000     29.42534   -1.4746316   0.14073038   -1.3339012 
   43000    37.696738   -1.5504775   0.18028938   -1.3701881 
   44000    22.633471   -1.5845128   0.10824741   -1.4762654 
   45000    29.535388   -1.5070549    0.1412567   -1.3657982 
   46000    32.320842   -1.5354027   0.15457848   -1.3808242 
   47000    34.303131   -1.5034833   0.16405902   -1.3394243 
   48000    30.037023    -1.508049   0.14365583   -1.3643932 
   49000    23.518929   -1.4585316   0.11248223   -1.3460493 
   50000    32.022942    -1.535709   0.15315374   -1.3825553 
   51000    25.275124   -1.5116526   0.12088145   -1.3907712 
   52000     35.11327    -1.512813   0.16793362   -1.3448794 
   53000    37.922535   -1.5185577   0.18136928   -1.3371884 
   54000    39.682238   -1.5452784   0.18978528   -1.3554931 
   55000    31.937034   -1.4790481   0.15274287   -1.3263052 
   56000    35.115989   -1.5488697   0.16794662   -1.3809231 
   57000     31.68102   -1.5546563   0.15151845   -1.4031379 
   58000    24.906763   -1.5171021   0.11911972   -1.3979824 
   59000    31.084108   -1.5402179   0.14866364   -1.3915543 
   60000    39.157422   -1.5051327   0.18727528   -1.3178574 
   61000    32.961762   -1.5417986   0.15764376   -1.3841549 
   62000    33.713858   -1.5189047   0.16124075   -1.3576639 
   63000    34.856185   -1.5447209   0.16670408   -1.3780169 
   64000    37.794053   -1.5561014    0.1807548   -1.3753466 
   65000    30.626011   -1.5709708   0.14647274   -1.4244981 
   66000    33.221428   -1.4805941   0.15888564   -1.3217085 
   67000    32.945059   -1.5553206   0.15756388   -1.3977568 
   68000    32.490023   -1.5286372   0.15538761   -1.3732496 
   69000    28.143267   -1.5504727    0.1345987    -1.415874 
   70000    22.530643   -1.6065577   0.10775562    -1.498802 
   71000    26.600595   -1.5697787   0.12722068    -1.442558 
   72000    22.797615    -1.507349   0.10903245   -1.3983165 
   73000     31.71919   -1.4876972     0.151701   -1.3359962 
   74000    32.282786   -1.5338874   0.15439647   -1.3794909 
   75000    28.353029   -1.5196469   0.13560192    -1.384045 
   76000    27.860513   -1.4895995   0.13324639   -1.3563531 
   77000    34.148774   -1.4639891   0.16332079   -1.3006683 
   78000    33.388818   -1.4098009   0.15968621   -1.2501147 
   79000    41.816987   -1.4810816   0.19999498   -1.2810866 
   80000    30.285781   -1.4532478   0.14484554   -1.3084022 
   81000    43.105366   -1.4239562   0.20615682   -1.2177994 
   82000     53.34922   -1.4411793   0.25514933     -1.18603 
   83000    43.390026   -1.4419821   0.20751824   -1.2344639 
   84000    42.332945   -1.4452638   0.20246261   -1.2428012 
   85000    36.793285   -1.4871005    0.1759685    -1.311132 
   86000    22.925798   -1.5323197    0.1096455   -1.4226742 
   87000     31.32254   -1.4739104   0.14980398   -1.3241064 
   88000    31.057456   -1.5188761   0.14853618   -1.3703399 
   89000    40.154998   -1.5110804   0.19204631   -1.3190341 
   90000    39.490807    -1.356374   0.18886974   -1.1675042 
   91000     34.72846   -1.4257937   0.16609322   -1.2597005 
   92000    51.645827   -1.4438157   0.24700264   -1.1968131 
   93000    36.343403   -1.4566771   0.17381688   -1.2828602 
   94000    36.241502   -1.4892611   0.17332953   -1.3159316 
   95000    35.593996   -1.4622526   0.17023275   -1.2920199 
   96000    40.997488   -1.4303723   0.19607562   -1.2342967 
   97000    36.451316    -1.457598   0.17433299    -1.283265 
   98000    37.846628   -1.4209868   0.18100624   -1.2399805 
   99000    40.827039   -1.3967913   0.19526043   -1.2015308 
  100000    31.757529   -1.4167961   0.15188436   -1.2649118 
  101000    40.820209   -1.3793702   0.19522777   -1.1841424 
  102000    37.821039   -1.4135094   0.18088386   -1.2326255 
  103000    44.985261   -1.3671781   0.21514765   -1.1520304 
  104000    40.661939   -1.3541694   0.19447082   -1.1596986 
  105000    41.961975   -1.4095951    0.2006884   -1.2089067 
  106000    46.233614   -1.4002986   0.22111805   -1.1791806 
  107000     33.43966   -1.4328723   0.15992937    -1.272943 
  108000    32.103064   -1.4569134   0.15353693   -1.3033765 
  109000    30.920767   -1.3980891   0.14788245   -1.2502066 
  110000     48.05512   -1.4334544   0.22982964   -1.2036248 
  111000    36.043803   -1.3633665   0.17238401   -1.1909825 
  112000    40.559359   -1.3398417   0.19398022   -1.1458615 
  113000    38.794813   -1.3849877   0.18554106   -1.1994466 
  114000    42.694205   -1.4069795   0.20419039   -1.2027891 
  115000    38.989921   -1.3799601   0.18647418   -1.1934859 
  116000     38.18513   -1.3850341   0.18262517   -1.2024089 
  117000    39.310085   -1.4153893   0.18800541   -1.2273839 
  118000     43.02507   -1.3931338   0.20577279    -1.187361 
  119000    33.891368   -1.3675573   0.16208971   -1.2054676 
  120000    38.588531   -1.3650566   0.18455449   -1.1805021 
  121000    43.667688   -1.3654427   0.20884619   -1.1565965 
  122000    46.061381   -1.3767813   0.22029433   -1.1564869 
  123000    36.246945   -1.3490129   0.17335556   -1.1756573 
  124000    52.937199   -1.3566781   0.25317879   -1.1034993 
  125000    43.837735   -1.4016555   0.20965947    -1.191996 
  126000    36.678665   -1.4261003   0.17542031   -1.2506799 
  127000    41.949942   -1.4461486   0.20063086   -1.2455178 
  128000    54.071851   -1.4081012   0.25860541   -1.1494958 
  129000    36.202306   -1.3851997   0.17314207   -1.2120576 
  130000    34.950384   -1.3994465   0.16715459   -1.2322919 
  131000    37.769812   -1.3707157   0.18063886   -1.1900769 
  132000    32.476645    -1.347977   0.15532362   -1.1926534 
  133000    44.618079   -1.3698647   0.21339155   -1.1564731 
  134000    36.205913   -1.4393469   0.17315932   -1.2661875 
  135000    39.062368   -1.4344343   0.18682067   -1.2476136 
  136000    44.977379   -1.3641041   0.21510995   -1.1489942 
  137000    51.385195   -1.4148107   0.24575614   -1.1690546 
  138000    35.808488   -1.4814085   0.17125858   -1.3101499 
  139000     39.09164   -1.3822001   0.18696067   -1.1952395 
  140000     41.20447   -1.4406996   0.19706554   -1.2436341 
  141000    52.761662   -1.4491193   0.25233926   -1.1967801 
  142000    49.263823   -1.5017603   0.23561041   -1.2661499 
  143000    31.583837    -1.472586   0.15105366   -1.3215323 
  144000    35.039674   -1.4480748   0.16758163   -1.2804932 
  145000    47.763647   -1.4856449   0.22843563   -1.2572092 
  146000    36.979332   -1.4852801   0.17685829   -1.3084218 
  147000    46.647472   -1.5038394   0.22309738   -1.2807421 
  148000    35.540296   -1.4848614   0.16997592   -1.3148855 
  149000    41.879006   -1.4050253    0.2002916   -1.2047337 
  150000    40.278824   -1.4767512   0.19263852   -1.2841127 
  151000     31.23841    -1.379122   0.14940161   -1.2297204 
  152000    33.838155   -1.4482496   0.16183522   -1.2864143 
  153000    48.565371   -1.4199877   0.23226997   -1.1877178 
  154000    50.946003   -1.4534597   0.24365565    -1.209804 
  155000    34.635796   -1.4509069   0.16565004   -1.2852568 
  156000    35.501631   -1.5188909     0.169791   -1.3490999 
  157000    27.343643   -1.5528983    0.1307744   -1.4221239 
  158000    27.240686   -1.5296492     0.130282   -1.3993672 
  159000    31.733159   -1.5516646   0.15176781   -1.3998968 
  160000    28.996909   -1.5277484   0.13868135    -1.389067 
  161000    27.837084   -1.5157969   0.13313434   -1.3826626 
  162000    29.205716   -1.5195012      0.13968   -1.3798212 
  163000    37.648552   -1.5154481   0.18005892   -1.3353892 
  164000    30.596191   -1.5069839   0.14633012   -1.3606538 
  165000    28.032399   -1.5414032   0.13406846   -1.4073348 
  166000     29.29188   -1.5443939   0.14009209   -1.4043018 
  167000    31.339602   -1.5381611   0.14988558   -1.3882755 
  168000    31.860302   -1.4840979   0.15237589    -1.331722 
  169000    36.727609   -1.4188272   0.17565439   -1.2431729 
  170000    39.656975   -1.4872632   0.18966446   -1.2975987 
  171000    43.768695   -1.4398956   0.20932927   -1.2305663 
  172000    40.746411   -1.4214405   0.19487482   -1.2265657 
  173000    32.348777   -1.4313342   0.15471208   -1.2766221 
  174000    33.587847   -1.4336023   0.16063809   -1.2729642 
  175000     34.54187   -1.4043738   0.16520082    -1.239173 
  176000    32.929115    -1.390705   0.15748762   -1.2332174 
  177000    39.097449   -1.4503336   0.18698845   -1.2633451 
  178000     45.95417   -1.4350541   0.21978158   -1.2152726 
  179000    40.586542    -1.455425   0.19411023   -1.2613147 
  180000    43.598498   -1.4206493   0.20851528   -1.2121341 
  181000    45.629708   -1.3934883    0.2182298   -1.1752585 
  182000    40.463485   -1.4583227   0.19352169   -1.2648011 
  183000    37.757804   -1.4774884   0.18058143    -1.296907 
  184000    41.991872   -1.4292938   0.20083139   -1.2284624 
  185000    40.140927   -1.3830122   0.19197902   -1.1910331 
  186000    37.376941   -1.3800161   0.17875991   -1.2012562 
  187000    26.210626   -1.4065323   0.12535561   -1.2811767 
  188000    37.288168   -1.4761104   0.17833534   -1.2977751 
  189000    37.710972   -1.4438787   0.18035745   -1.2635213 
  190000     31.00283   -1.4861072   0.14827492   -1.3378322 
  191000    41.656739   -1.4727787   0.19922858   -1.2735501 
  192000     51.12117   -1.4035759    0.2444934   -1.1590824 
  193000    29.432894   -1.3951759   0.14076651   -1.2544094 
  194000     41.63054   -1.3842443   0.19910328   -1.1851411 
  195000    35.326652    -1.405634   0.16895414   -1.2366799 
  196000    51.389707   -1.3631819   0.24577771   -1.1174042 
  197000    44.199439    -1.411905   0.21138936   -1.2005156 
  198000    48.550881   -1.4534041   0.23220068   -1.2212035 
  199000    32.809149   -1.4374321   0.15691387   -1.2805183 
  200000    40.145604     -1.44954   0.19200138   -1.2575387 
  201000     36.94366   -1.4844508   0.17668769   -1.3077631 
  202000    42.429728   -1.5045243   0.20292549   -1.3015988 
  203000    45.909276   -1.3449717   0.21956687   -1.1254048 
  204000    37.665329   -1.3818174   0.18013916   -1.2016783 
  205000    41.490816   -1.4399153   0.19843503   -1.2414803 
  206000    34.713848   -1.3654409   0.16602333   -1.1994176 
  207000    47.096319   -1.5549712   0.22524405   -1.3297271 
  208000    41.601157   -1.4481026   0.19896275   -1.2491399 
  209000    46.431181   -1.4655782   0.22206295   -1.2435152 
  210000    28.139453   -1.4303676   0.13458046   -1.2957872 
  211000    41.021335   -1.4466112   0.19618968   -1.2504216 
  212000    38.769182    -1.460528   0.18541848   -1.2751095 
  213000     31.24447   -1.4876904   0.14943059   -1.3382598 
  214000    32.624609   -1.4941871   0.15603128   -1.3381558 
  215000    29.880828   -1.4831616   0.14290881   -1.3402528 
  216000    33.419282    -1.487642   0.15983191   -1.3278101 
  217000    42.842445   -1.4833627   0.20489936   -1.2784633 
  218000    41.322769    -1.428372   0.19763132   -1.2307407 
  219000    38.404347   -1.4088401    0.1836736   -1.2251665 
  220000    45.808898   -1.4271964    0.2190868   -1.2081096 
  221000    34.200927   -1.5219339   0.16357022   -1.3583637 
  222000    42.473427   -1.4650018   0.20313449   -1.2618673 
  223000    41.976945   -1.3466846      0.20076   -1.1459246 
  224000    36.251432   -1.4233278   0.17337702   -1.2499508 
  225000    31.340016   -1.4619316   0.14988755    -1.312044 
  226000    47.140498   -1.4168731   0.22545534   -1.1914178 
  227000    32.466491   -1.4476265   0.15527506   -1.2923514 
  228000    43.620085   -1.4245805   0.20861853    -1.215962 
  229000    38.503399   -1.4499065   0.18414733   -1.2657592 
  230000     46.09586   -1.4427838   0.22045923   -1.2223245 
  231000    43.338669   -1.4660507   0.20727262   -1.2587781 
  232000    39.672325   -1.4901361   0.18973787   -1.3003983 
  233000    29.508606   -1.4053378   0.14112861   -1.2642091 
  234000    39.941046   -1.3909365   0.19102306   -1.1999134 
  235000    52.401824   -1.3820829   0.25061829   -1.1314646 
  236000    30.681618   -1.4279237   0.14673868    -1.281185 
  237000    31.930319   -1.4040764   0.15271076   -1.2513656 
  238000    44.924852   -1.3825415   0.21485874   -1.1676827 
  239000    58.187381   -1.4142841   0.27828845   -1.1359956 
  240000    38.691629   -1.3923197   0.18504756   -1.2072722 
  241000    46.181048   -1.4212791   0.22086665   -1.2004124 
  242000    31.315482   -1.4170431   0.14977022   -1.2672729 
  243000    39.177709   -1.4352183    0.1873723   -1.2478459 
  244000    34.621176   -1.4160154   0.16558011   -1.2504353 
  245000    33.689615   -1.3825671   0.16112481   -1.2214423 
  246000    38.132331   -1.4187747   0.18237266   -1.2364021 
  247000    55.640128    -1.423587   0.26610589   -1.1574811 
  248000     47.20975   -1.3749712   0.22578655   -1.1491846 
  249000    38.271003   -1.4359948   0.18303587   -1.2529589 
  250000    33.080878   -1.4035411   0.15821345   -1.2453277 
  251000    38.638576   -1.4495174   0.18479383   -1.2647236 
  252000    38.993937   -1.3975504   0.18649339    -1.211057 
  253000    47.161358    -1.343777   0.22555511   -1.1182219 
  254000    45.497461   -1.3448507   0.21759731   -1.1272534 
  255000     31.82161   -1.4136855   0.15219084   -1.2614946 
  256000    34.327713   -1.4715661   0.16417659   -1.3073895 
  257000    39.620699   -1.3947889   0.18949096   -1.2052979 
  258000    39.865037    -1.425262   0.19065954   -1.2346024 
  259000     35.75764   -1.4050914    0.1710154    -1.234076 
  260000    33.956253   -1.3358085   0.16240004   -1.1734085 
  261000     36.67603   -1.4642344   0.17540771   -1.2888267 
  262000    41.740436   -1.4668069   0.19962887    -1.267178 
  263000    43.585249   -1.4502014   0.20845192   -1.2417495 
  264000    37.578035   -1.3804471   0.17972167   -1.2007254 
  265000    36.205403   -1.3988694   0.17315688   -1.2257125 
  266000    40.694157   -1.4141549   0.19462491     -1.21953 
  267000    35.416159   -1.3876227   0.16938222   -1.2182405 
  268000    38.566302   -1.3955726   0.18444817   -1.2111244 
  269000    45.424734   -1.4630323   0.21724948   -1.2457828 
  270000    38.872217   -1.3806228   0.18591125   -1.1947115 
  271000    36.755862    -1.474754   0.17578952   -1.2989645 
  272000    43.181068    -1.434414   0.20651887   -1.2278951 
  273000    37.381222   -1.3938804   0.17878038      -1.2151 
  274000    44.373096   -1.4711088    0.2122199   -1.2588889 
  275000    40.062652   -1.4333517   0.19160466   -1.2417471 
  276000    39.074678   -1.4221878   0.18687955   -1.2353082 
  277000    39.002115   -1.3595283   0.18653251   -1.1729958 
  278000    45.130685   -1.4134236   0.21584316   -1.1975804 
  279000    43.194455   -1.3674737    0.2065829   -1.1608908 
  280000    39.285715   -1.3595293   0.18788885   -1.1716405 
  281000    52.473798   -1.3886869   0.25096252   -1.1377244 
  282000    36.142251   -1.4399984   0.17285485   -1.2671435 
  283000     46.21531   -1.4721887   0.22103051   -1.2511582 
  284000    44.856114   -1.3830151   0.21452999   -1.1684851 
  285000    38.804026   -1.3480457   0.18558512   -1.1624606 
  286000    37.561973   -1.3624144   0.17964485   -1.1827695 
  287000    43.285074   -1.4267383   0.20701629   -1.2197221 
  288000    44.324728   -1.3979773   0.21198857   -1.1859887 
  289000    35.679626   -1.4271329   0.17064229   -1.2564906 
  290000    44.383456   -1.4640572   0.21226944   -1.2517878 
  291000    45.700708   -1.4248232   0.21856937   -1.2062538 
  292000    42.813281   -1.4013561   0.20475988   -1.1965962 
  293000    39.649083   -1.3556516   0.18962671   -1.1660249 
  294000    38.881843   -1.3491241   0.18595729   -1.1631668 
  295000    42.174653   -1.3712386   0.20170556    -1.169533 
  296000    49.117822   -1.3843721   0.23491214     -1.14946 
  297000    41.123542   -1.3972806   0.19667849   -1.2006021 
  298000    43.120673   -1.4313244   0.20623002   -1.2250944 
  299000    37.614316   -1.4261708   0.17989518   -1.2462756 
  300000    33.179584   -1.3378028   0.15868552   -1.1791172 
  301000    35.940819    -1.345734   0.17189147   -1.1738425 
  302000    36.818191   -1.3494522   0.17608762   -1.1733646 
  303000    34.377929   -1.3013699   0.16441676   -1.1369531 
  304000     42.10831   -1.3186756   0.20138827   -1.1172874 
  305000    43.211928   -1.3956565   0.20666646   -1.1889901 
  306000    49.600079   -1.3145527    0.2372186   -1.0773341 
  307000    35.721744   -1.3314902   0.17084372   -1.1606464 
  308000    36.258814   -1.3947616   0.17341232   -1.2213493 
  309000      52.8541   -1.3595004   0.25278136    -1.106719 
  310000      43.3242   -1.3931454   0.20720342   -1.1859419 
  311000    33.372266   -1.3620862   0.15960705   -1.2024791 
  312000    41.991117   -1.4209002   0.20082778   -1.2200724 
  313000    39.959991   -1.3611681   0.19111366   -1.1700544 
  314000    46.027296    -1.301209   0.22013132   -1.0810777 
  315000    44.625837   -1.3487209   0.21342866   -1.1352922 
  316000    41.194186   -1.3806243   0.19701636    -1.183608 
  317000    27.958844   -1.3546529   0.13371668   -1.2209362 
  318000    39.390837   -1.4288396   0.18839162    -1.240448 
  319000    41.694488   -1.4098692   0.19940912     -1.21046 
  320000    42.756978   -1.4663387   0.20449061   -1.2618481 
  321000    38.767111   -1.5118092   0.18540857   -1.3264006 
  322000    28.301227   -1.4753846   0.13535417   -1.3400305 
  323000    30.582704   -1.4722219   0.14626562   -1.3259563 
  324000    26.202288   -1.5050808   0.12531573   -1.3797651 
  325000    29.423366   -1.5007516   0.14072094   -1.3600306 
  326000    41.028486   -1.4890307   0.19622388   -1.2928068 
  327000    30.766561   -1.5467922   0.14714493   -1.3996473 
  328000    31.928998   -1.5209696   0.15270444   -1.3682652 
  329000    45.608094   -1.5445568   0.21812643   -1.3264304 
  330000    36.485691   -1.5313597   0.17449739   -1.3568623 
  331000    23.471015   -1.5020218   0.11225307   -1.3897687 
  332000    31.399618   -1.5847005   0.15017261   -1.4345279 
  333000    21.168235   -1.6222964   0.10123974   -1.5210566 
  334000    25.111637   -1.5503584   0.12009955   -1.4302588 
  335000    30.569897   -1.4981739   0.14620436   -1.3519696 
  336000    31.538791   -1.5279855   0.15083822   -1.3771472 
  337000    34.908176   -1.4998419   0.16695273   -1.3328892 
  338000    32.573598    -1.493186   0.15578732   -1.3373987 
  339000    30.500069   -1.5636049    0.1458704   -1.4177345 
  340000    34.086061   -1.5954144   0.16302086   -1.4323936 
  341000    22.561054   -1.5216105   0.10790107   -1.4137094 
  342000    32.808817   -1.5480787   0.15691228   -1.3911664 
  343000    26.235608   -1.5379866   0.12547508   -1.4125115 
  344000    30.193224   -1.5306475   0.14440288   -1.3862446 
  345000    33.588121   -1.4650837    0.1606394   -1.3044443 
  346000    33.302398   -1.5391612   0.15927289   -1.3798883 
  347000    36.808411   -1.4976758   0.17604084    -1.321635 
  348000    33.115981    -1.507706   0.15838133   -1.3493247 
  349000    34.175533   -1.5097365   0.16344877   -1.3462877 
  350000    42.556341   -1.4117974   0.20353104   -1.2082663 
  351000    41.818103   -1.3819846   0.20000032   -1.1819843 
  352000     45.03175   -1.5179956   0.21536999   -1.3026256 
  353000    31.604883   -1.4877848   0.15115432   -1.3366305 
  354000     32.97585   -1.4956631   0.15771114    -1.337952 
  355000    33.499437   -1.5065552   0.16021526   -1.3463399 
  356000     28.84356   -1.5147906   0.13794794   -1.3768427 
  357000    36.580832   -1.5174001   0.17495242   -1.3424476 
  358000    38.970028   -1.5022445   0.18637905   -1.3158654 
  359000    32.084834   -1.4819193   0.15344974   -1.3284695 
  360000     38.24828   -1.4860011    0.1829272   -1.3030739 
  361000    32.292579    -1.492195   0.15444331   -1.3377517 
  362000    31.026729   -1.5039741   0.14838922   -1.3555849 
  363000    33.980786   -1.5163799   0.16251737   -1.3538626 
  364000    32.905318   -1.5352207   0.15737381   -1.3778469 
  365000    31.945351   -1.5269648   0.15278265   -1.3741822 
  366000    29.620116    -1.554071   0.14166192   -1.4124091 
  367000        37.11   -1.5095511   0.17748323   -1.3320678 
  368000    29.638775   -1.5424838   0.14175116   -1.4007327 
  369000    29.864614   -1.5258496   0.14283126   -1.3830183 
  370000    36.593405   -1.5728302   0.17501255   -1.3978177 
  371000    37.678536   -1.4656819   0.18020232   -1.2854796 
  372000    32.823565   -1.5437653   0.15698282   -1.3867825 
  373000      31.8832   -1.5754886    0.1524854   -1.4230032 
  374000    30.435607   -1.4804343   0.14556211   -1.3348722 
  375000    29.278261   -1.5248496   0.14002696   -1.3848226 
  376000    34.222694   -1.5284745   0.16367432   -1.3648002 
  377000    25.672582   -1.5316116   0.12278234   -1.4088293 
  378000     20.37574   -1.5403985  0.097449533    -1.442949 
  379000    26.716565   -1.5282395   0.12777532   -1.4004642 
  380000    27.600013   -1.5833754   0.13200052   -1.4513749 
  381000    29.610983   -1.5789223   0.14161824   -1.4373041 
  382000    25.533496   -1.5738874   0.12211715   -1.4517702 
  383000    34.054165   -1.5302323   0.16286831    -1.367364 
  384000    27.453073   -1.5738667   0.13129776   -1.4425689 
  385000    25.930544   -1.5396171   0.12401608    -1.415601 
  386000    38.282062   -1.5932755   0.18308876   -1.4101867 
  387000    25.250801   -1.5616371   0.12076512   -1.4408719 
  388000    32.259746   -1.5274653   0.15428628    -1.373179 
  389000    29.195739   -1.5915749   0.13963228   -1.4519426 
  390000    25.099209    -1.609546   0.12004011   -1.4895059 
  391000    17.584283   -1.6024815  0.084099037   -1.5183825 
  392000    19.350124   -1.6241778  0.092544392   -1.5316334 
  393000    27.274874   -1.5736063   0.13044551   -1.4431608 
  394000      31.1133   -1.6071859   0.14880326   -1.4583827 
  395000    22.609228   -1.5899535   0.10813147   -1.4818221 
  396000    27.736169    -1.594306    0.1326517   -1.4616543 
  397000    23.504948   -1.5634209   0.11241536   -1.4510055 
  398000    24.239631   -1.5802814   0.11592907   -1.4643523 
  399000    34.616931   -1.6195867   0.16555981   -1.4540269 
  400000    20.004129   -1.6125007  0.095672255   -1.5168284 
  401000    19.241675   -1.6257501  0.092025723   -1.5337244 
  402000    27.184222   -1.6253571   0.13001195   -1.4953452 
  403000    24.927688   -1.6193324   0.11921979   -1.5001126 
  404000    19.996048   -1.6110141  0.095633605   -1.5153805 
  405000    17.827007     -1.63207  0.085259894   -1.5468101 
  406000    27.319441   -1.6265732   0.13065865   -1.4959146 
  407000     21.23215   -1.5947047   0.10154542   -1.4931593 
  408000    19.509685   -1.6198455  0.093307515    -1.526538 
  409000    18.500212   -1.6349911  0.088479582   -1.5465115 
  410000     20.81878    -1.632764  0.099568424   -1.5331956 
  411000    16.987425   -1.6133411  0.081244489   -1.5320966 
  412000    21.791541    -1.637012   0.10422078   -1.5327912 
  413000    22.365161   -1.6329594   0.10696419   -1.5259952 
  414000    21.608809   -1.6031076   0.10334684   -1.4997607 
  415000    22.125746   -1.6089542   0.10581916    -1.503135 
  416000    21.816738   -1.6500131   0.10434129   -1.5456718 
  417000    24.980763   -1.6097485   0.11947363   -1.4902749 
  418000    16.520583   -1.6097863  0.079011758   -1.5307746 
  419000    23.864564   -1.6034253   0.11413527   -1.4892901 
  420000    25.220927   -1.6140043   0.12062225   -1.4933821 
  421000    18.791049   -1.6231848  0.089870548   -1.5333142 
  422000    27.203226   -1.6320164   0.13010284   -1.5019136 
  423000    22.076341   -1.6095588   0.10558287    -1.503976 
  424000     23.18195   -1.6487493   0.11087058   -1.5378787 
  425000    23.401221   -1.6284693   0.11191927   -1.5165501 
  426000    19.374338   -1.5859005    0.0926602   -1.4932403 
  427000     25.91164   -1.6425144   0.12392567   -1.5185888 
  428000    25.609256   -1.6211186   0.12247948   -1.4986391 
  429000     23.33095   -1.6017187    0.1115832   -1.4901355 
  430000    19.814505   -1.6117146  0.094765354   -1.5169492 
  431000    22.230913   -1.5678072   0.10632213    -1.461485 
  432000    24.192385   -1.5761911   0.11570312    -1.460488 
  433000    29.842892   -1.5817498   0.14272737   -1.4390224 
  434000    28.122981   -1.5567823   0.13450168   -1.4222807 
  435000    23.894071   -1.6056395   0.11427639   -1.4913631 
  436000    17.036433   -1.6252434  0.081478878   -1.5437645 
  437000    19.725952   -1.6184242  0.094341838   -1.5240823 
  438000    21.355928   -1.6284551    0.1021374   -1.5263177 
  439000    22.357222   -1.6201077   0.10692622   -1.5131815 
  440000    22.138856   -1.6495459   0.10588186    -1.543664 
  441000    23.923578   -1.6314807   0.11441751   -1.5170632 
  442000    28.259283   -1.6013524   0.13515356   -1.4661988 
  443000    27.154799   -1.5743305   0.12987123   -1.4444593 
  444000    31.345847   -1.5740639   0.14991544   -1.4241484 
  445000    34.566547    -1.606018   0.16531884   -1.4406992 
  446000    23.016758    -1.592288   0.11008053   -1.4822075 
  447000    29.504325   -1.6053252   0.14110814   -1.4642171 
  448000    30.025818   -1.5685614   0.14360224   -1.4249592 
  449000    31.807612   -1.5664227   0.15212389   -1.4142988 
  450000    28.762382   -1.5720426    0.1375597   -1.4344829 
  451000    34.393057   -1.5420086    0.1644891   -1.3775195 
  452000    35.195328   -1.5210088   0.16832607   -1.3526828 
  453000     36.46765   -1.5327081   0.17441111    -1.358297 
  454000    26.486141   -1.5577081   0.12667329   -1.4310348 
  455000    34.753317   -1.4899351    0.1662121    -1.323723 
  456000    36.686839   -1.5367823    0.1754594   -1.3613229 
  457000    27.005191   -1.4887972   0.12915571   -1.3596414 
  458000    39.251599   -1.3918064   0.18772569   -1.2040807 
  459000    37.102373   -1.4422349   0.17744675   -1.2647881 
  460000    43.098877   -1.3917727   0.20612578   -1.1856469 
  461000    36.161346   -1.3919111   0.17294617   -1.2189649 
  462000     48.21126   -1.4325117   0.23057639   -1.2019353 
  463000    42.687629   -1.4857622   0.20415894   -1.2816033 
  464000    34.262144    -1.456287     0.163863    -1.292424 
  465000    37.075987   -1.4373998   0.17732055   -1.2600793 
  466000    43.509622    -1.476672   0.20809022   -1.2685818 
  467000     35.90828   -1.4965864   0.17173585   -1.3248505 
  468000    37.347703     -1.49145   0.17862007     -1.31283 
  469000    34.243979   -1.4409728   0.16377612   -1.2771967 
  470000    39.066596   -1.4368205   0.18684089   -1.2499796 
  471000    33.614465   -1.4159886    0.1607654   -1.2552232 
  472000    43.864951   -1.4916311   0.20978963   -1.2818414 
  473000    46.402407   -1.4604455   0.22192533   -1.2385202 
  474000     29.64947   -1.5302356   0.14180231   -1.3884333 
  475000    29.010437     -1.53431   0.13874605   -1.3955639 
  476000    28.570697    -1.531829   0.13664294    -1.395186 
  477000    31.164518    -1.506979   0.14904822   -1.3579308 
  478000    39.131617   -1.5300001   0.18715186   -1.3428482 
  479000    28.656125   -1.5003579   0.13705151   -1.3633063 
  480000    37.478391   -1.5087148    0.1792451   -1.3294697 
  481000    24.589447   -1.4456058   0.11760211   -1.3280037 
  482000    27.797928   -1.4534502   0.13294707   -1.3205031 
  483000    28.887741   -1.4783135   0.13815924   -1.3401542 
  484000    31.957435   -1.5027315   0.15284044   -1.3498911 
  485000    35.361031   -1.5129148   0.16911856   -1.3437962 
  486000    28.647156   -1.4807418   0.13700862   -1.3437332 
  487000    31.818506   -1.5299826   0.15217599   -1.3778066 
  488000    30.823114   -1.5326957   0.14741541   -1.3852803 
  489000    30.785634   -1.4861442   0.14723615   -1.3389081 
  490000    34.514945   -1.4777844   0.16507205   -1.3127123 
  491000    31.988455    -1.540915   0.15298879   -1.3879262 
  492000    37.690984   -1.5387693   0.18026185   -1.3585075 
  493000    25.043964   -1.5163871    0.1197759   -1.3966112 
  494000    49.691078   -1.4419153   0.23765381   -1.2042615 
  495000     50.73734   -1.4634456   0.24265769    -1.220788 
  496000    34.761972   -1.4471629   0.16625349   -1.2809094 
  497000    35.906579   -1.3936557   0.17172772    -1.221928 
  498000    41.813979   -1.4510758    0.1999806   -1.2510952 
  499000    36.118409   -1.4017837   0.17274082   -1.2290428 
  500000    28.595818   -1.3717557   0.13676309   -1.2349926 
  501000    43.418235   -1.4010813   0.20765315   -1.1934281 
  502000    51.040787   -1.4414063   0.24410896   -1.1972973 
  503000    35.109389   -1.5122222   0.16791506   -1.3443071 
  504000    34.573819   -1.5044695   0.16535363   -1.3391158 
  505000    46.485483   -1.4504461   0.22232265   -1.2281234 
  506000    49.979087   -1.4547505   0.23903125   -1.2157193 
  507000    45.731232   -1.4087138   0.21871535   -1.1899985 
  508000    41.754944   -1.4990749   0.19969826   -1.2993766 
  509000    24.712039   -1.4517856   0.11818842   -1.3335971 
  510000    37.506693   -1.4286942   0.17938046   -1.2493138 
  511000    44.182732   -1.4336325   0.21130945   -1.2223231 
  512000    42.925775   -1.4548486    0.2052979   -1.2495507 
  513000    42.429611   -1.4307865   0.20292493   -1.2278616 
  514000    44.344158   -1.4195444   0.21208149   -1.2074629 
  515000     45.20631   -1.4268257   0.21620485   -1.2106208 
  516000    46.164777    -1.399143   0.22078883   -1.1783542 
  517000    40.280855   -1.4177751   0.19264824   -1.2251268 
  518000    46.690635   -1.4261339   0.22330381   -1.2028301 
  519000    37.292802   -1.4444653    0.1783575   -1.2661078 
  520000    42.650338   -1.3866359   0.20398059   -1.1826553 
  521000    43.716844   -1.4296827   0.20908129   -1.2206014 
  522000    46.575481   -1.3662284   0.22275308   -1.1434753 
  523000    35.626418   -1.4180578   0.17038781     -1.24767 
  524000    36.260866   -1.3703762   0.17342214    -1.196954 
  525000    43.230564   -1.3832745   0.20675559   -1.1765189 
  526000     37.98536   -1.4008736   0.18166975   -1.2192038 
  527000    33.311086    -1.376334   0.15931444   -1.2170195 
  528000    50.242415   -1.4489874   0.24029065   -1.2086968 
  529000    37.348394   -1.4862294   0.17862338    -1.307606 
  530000    45.801016   -1.4687874    0.2190491   -1.2497383 
  531000     38.82144   -1.4356954    0.1856684    -1.250027 
  532000    43.686387   -1.3438281   0.20893562   -1.1348925 
  533000    45.278991    -1.389893   0.21655245   -1.1733405 
  534000    44.784093   -1.3410844   0.21418554   -1.1268988 
  535000    37.358765   -1.3855048   0.17867298   -1.2068318 
  536000    37.678104   -1.4250957   0.18020025   -1.2448955 
  537000    48.740103   -1.4023753   0.23310565   -1.1692696 
  538000    38.870688    -1.396172   0.18590394    -1.210268 
  539000    47.943395   -1.3889443    0.2292953    -1.159649 
  540000    45.296166   -1.4536077   0.21663459   -1.2369731 
  541000    51.942171   -1.4393282   0.24841995   -1.1909083 
  542000    37.330991   -1.4799606   0.17854014   -1.3014205 
  543000    38.736181   -1.4827109   0.18526064   -1.2974502 
  544000    43.014092   -1.4234239   0.20572029   -1.2177036 
  545000    38.531605   -1.4247607   0.18428223   -1.2404785 
  546000    37.759591    -1.394689   0.18058998    -1.214099 
  547000    34.246536   -1.4268508   0.16378835   -1.2630625 
  548000    33.045808   -1.4218618   0.15804572   -1.2638161 
  549000    33.509669   -1.4008601   0.16026419   -1.2405959 
  550000     34.14172   -1.3776282   0.16328706   -1.2143412 
  551000    35.128011    -1.446715   0.16800412   -1.2787108 
  552000    44.105654   -1.3984473   0.21094082   -1.1875065 
  553000    35.657014   -1.3929299   0.17053414   -1.2223958 
  554000    34.873803   -1.3635073   0.16678833    -1.196719 
  555000    35.429617   -1.3893505   0.16944658   -1.2199039 
  556000    34.342869   -1.3801891   0.16424908     -1.21594 
  557000    42.177246   -1.3685068   0.20171796   -1.1667889 
  558000    41.044025   -1.4130773   0.19629819   -1.2167791 
  559000    33.372552    -1.455311   0.15960842   -1.2957025 
  560000    42.561995   -1.3875527   0.20355808   -1.1839946 
  561000    41.134046   -1.3940985   0.19672873   -1.1973698 
  562000    34.479979   -1.3591963   0.16490482   -1.1942914 
  563000    42.556275   -1.4579106   0.20353072   -1.2543799 
  564000    34.755773   -1.4088462   0.16622384   -1.2426223 
  565000    36.117108   -1.4091729    0.1727346   -1.2364383 
  566000    45.211285   -1.4323298   0.21622864   -1.2161011 
  567000    32.023604   -1.3975272    0.1531569   -1.2443703 
  568000    40.153378   -1.4180114   0.19203856   -1.2259728 
  569000    36.772078   -1.4288154   0.17586707   -1.2529483 
  570000    32.309263   -1.4771862    0.1545231   -1.3226631 
  571000    37.075954   -1.4948017    0.1773204   -1.3174813 
  572000    38.258358   -1.4398666   0.18297539   -1.2568912 
  573000    45.468243   -1.3915298   0.21745757   -1.1740723 
  574000    45.226066   -1.4451267   0.21629933   -1.2288274 
  575000    32.848408   -1.4012302   0.15710163   -1.2441286 
  576000    40.026912    -1.404191   0.19143372   -1.2127573 
  577000    35.266066   -1.4235175   0.16866438   -1.2548531 
  578000     43.85269   -1.4137934   0.20973099   -1.2040624 
  579000    37.431296   -1.4067739   0.17901987   -1.2277541 
  580000    45.479056   -1.4274117   0.21750928   -1.2099024 
  581000    41.988524   -1.4217637   0.20081538   -1.2209483 
  582000    35.040929   -1.4785304   0.16758764   -1.3109428 
  583000    42.146463   -1.4190373   0.20157074   -1.2174666 
  584000    39.048711   -1.4230578   0.18675536   -1.2363024 
  585000    34.785504    -1.434294   0.16636604    -1.267928 
  586000     34.22411   -1.4336831   0.16368109    -1.270002 
  587000    42.879244    -1.398267   0.20507536   -1.1931916 
  588000    48.036284   -1.3944242   0.22973955   -1.1646846 
  589000    46.558227   -1.4395047   0.22267056   -1.2168342 
  590000    37.952542   -1.4086752   0.18151279   -1.2271624 
  591000    36.377282   -1.3614029   0.17397891   -1.1874239 
  592000    37.725095   -1.3209724     0.180425   -1.1405474 
  593000    38.221214   -1.2929789   0.18279775   -1.1101812 
  594000    50.209076   -1.4019977    0.2401312   -1.1618665 
  595000    42.436675   -1.4243973   0.20295872   -1.2214386 
  596000    47.037574   -1.4423203    0.2249631   -1.2173572 
  597000    40.550531   -1.5140556     0.193938   -1.3201176 
  598000    38.104475   -1.4798898   0.18223943   -1.2976504 
  599000    44.932497   -1.4097121    0.2148953   -1.1948168 
  600000    45.025381   -1.5145934   0.21533953   -1.2992539 
  601000    42.962508   -1.4383504   0.20547358   -1.2328769 
  602000    35.844045    -1.422979   0.17142864   -1.2515503 
  603000    37.808926   -1.4025537   0.18082593   -1.2217278 
  604000    38.217689   -1.4387156   0.18278089   -1.2559347 
  605000    37.391109    -1.482882   0.17882767   -1.3040543 
  606000    41.000148    -1.399647   0.19608835   -1.2035587 
  607000    35.777622   -1.3879634   0.17111096   -1.2168525 
  608000    36.921559   -1.3276733   0.17658199   -1.1510913 
  609000    39.490878   -1.4087702   0.18887007   -1.2199001 
  610000    41.822137   -1.4362226   0.20001961    -1.236203 
  611000    39.511552   -1.3358298   0.18896895   -1.1468609 
  612000    33.032844   -1.3831147   0.15798372    -1.225131 
  613000    41.867196   -1.4345226   0.20023511   -1.2342875 
  614000    42.796298   -1.4261803   0.20467866   -1.2215017 
  615000    36.041227   -1.5245358   0.17237169   -1.3521641 
  616000    41.084229   -1.5302844   0.19649048    -1.333794 
  617000    52.093186   -1.4518664   0.24914219   -1.2027242 
  618000    44.199429     -1.44474   0.21138931   -1.2333507 
  619000     52.34095   -1.4132916   0.25032716   -1.1629645 
  620000    43.405015   -1.4647826   0.20758992   -1.2571927 
  621000    32.662083   -1.4004741   0.15621051   -1.2442636 
  622000    43.918172   -1.4438079   0.21004416   -1.2337638 
  623000    35.469543   -1.4479011   0.16963754   -1.2782636 
  624000    35.933368   -1.4427572   0.17185584   -1.2709014 
  625000    41.782238    -1.437444   0.19982879   -1.2376152 
  626000    45.554409   -1.4281004   0.21786967   -1.2102308 
  627000    47.407033   -1.4281837   0.22673008   -1.2014536 
  628000    39.635975   -1.4267992   0.18956402   -1.2372351 
  629000    46.499788   -1.4014675   0.22239107   -1.1790765 
  630000    34.100782   -1.4345999   0.16309126   -1.2715086 
  631000    45.722742   -1.4683169   0.21867475   -1.2496422 
  632000    41.825856   -1.4507117    0.2000374   -1.2506743 
  633000    44.088192   -1.4132749   0.21085731   -1.2024176 
  634000    40.923214   -1.5114868    0.1957204   -1.3157664 
  635000    40.391759   -1.4570863   0.19317865   -1.2639076 
  636000    35.803212   -1.4856058   0.17123335   -1.3143724 
  637000    29.716698   -1.5039627   0.14212383   -1.3618388 
  638000    38.129141   -1.3706842    0.1823574   -1.1883268 
  639000    38.549535   -1.4215616   0.18436799   -1.2371936 
  640000    43.213842    -1.449898   0.20667561   -1.2432224 
  641000    43.478385   -1.5093374   0.20794083   -1.3013966 
  642000    40.992434   -1.5034246   0.19605145   -1.3073731 
  643000    42.074839     -1.42827   0.20122819   -1.2270418 
  644000    46.086708    -1.422946   0.22041546   -1.2025305 
  645000    45.653986    -1.410291   0.21834591   -1.1919451 
  646000    41.269324    -1.455483   0.19737571   -1.2581073 
  647000    47.730014   -1.4472357   0.22827477    -1.218961 
  648000     38.44242   -1.4980789   0.18385569   -1.3142233 
  649000    39.495987   -1.4126489   0.18889451   -1.2237544 
  650000    41.973293   -1.4478309   0.20074254   -1.2470884 
  651000    35.924227   -1.5076413   0.17181212   -1.3358292 
  652000    45.646013   -1.4445836   0.21830778   -1.2262758 
  653000    46.504244   -1.5481458   0.22241237   -1.3257335 
  654000    31.938096   -1.4536174   0.15274795   -1.3008694 
  655000    34.291737   -1.5413684   0.16400453   -1.3773639 
  656000    35.274092   -1.5228137   0.16870277   -1.3541109 
  657000    45.295211   -1.4272628   0.21663002   -1.2106328 
  658000    32.261317   -1.4600944    0.1542938   -1.3058006 
  659000    41.070501   -1.4917391   0.19642482   -1.2953143 
  660000    35.733124   -1.4840994   0.17089814   -1.3132012 
  661000    34.111087   -1.4723811   0.16314055   -1.3092405 
  662000    37.915409   -1.4702883    0.1813352   -1.2889531 
  663000    35.622769   -1.5472234   0.17037036   -1.3768531 
  664000    36.470659   -1.5331222    0.1744255   -1.3586967 
  665000    33.034952    -1.519007    0.1579938   -1.3610132 
  666000    27.103418   -1.5468134   0.12962549   -1.4171879 
  667000    31.948854   -1.5424084    0.1527994    -1.389609 
  668000    23.363025   -1.5656066   0.11173659   -1.4538701 
  669000    29.438267   -1.6209546    0.1407922   -1.4801624 
  670000    27.818349   -1.5787135   0.13304474   -1.4456688 
  671000    25.375314   -1.5933338   0.12136062   -1.4719732 
  672000    28.364789   -1.6082996   0.13565816   -1.4726414 
  673000    29.156021   -1.5982061   0.13944232   -1.4587638 
  674000    24.421136   -1.5852818   0.11679714   -1.4684847 
  675000    24.694826   -1.5773972    0.1181061   -1.4592911 
  676000    21.826612   -1.5601978   0.10438851   -1.4558093 
  677000    39.994244   -1.5037336   0.19127748   -1.3124561 
  678000    31.583267   -1.5881238   0.15105093   -1.4370729 
  679000    30.962324     -1.64938   0.14808119   -1.5012988 
  680000    23.492446   -1.5493048   0.11235557   -1.4369493 
  681000    24.603208   -1.5710491   0.11766793   -1.4533812 
  682000    24.460404   -1.5052221   0.11698495   -1.3882372 
  683000    27.531938   -1.5790569   0.13167494   -1.4473819 
  684000    26.766727   -1.6118413   0.12801523    -1.483826 
  685000    22.144269   -1.5188428   0.10590774   -1.4129351 
  686000     31.31002   -1.5415398    0.1497441   -1.3917957 
  687000    33.424674   -1.5613574   0.15985769   -1.4014997 
  688000    29.340202   -1.5195009   0.14032319   -1.3791778 
  689000     31.23714   -1.5047291   0.14939554   -1.3553335 
  690000    25.827066   -1.5378568   0.12352118   -1.4143356 
  691000    31.351049   -1.5453411   0.14994032   -1.3954008 
  692000    34.238117   -1.4907496   0.16374808   -1.3270015 
  693000    36.371844   -1.5492585    0.1739529   -1.3753056 
  694000    29.054085   -1.5488742    0.1389548   -1.4099194 
  695000    35.154309   -1.5646236   0.16812989   -1.3964937 
  696000    37.922815   -1.5034363   0.18137062   -1.3220657 
  697000     27.95016   -1.5066984   0.13367514   -1.3730233 
  698000    30.813573   -1.5469877   0.14736977   -1.3996179 
  699000    39.627357   -1.5725066    0.1895228   -1.3829838 
  700000     32.71425   -1.5389514      0.15646   -1.3824914 
  701000    37.047479   -1.4954295   0.17718421   -1.3182453 
  702000    33.596266   -1.5673316   0.16067835   -1.4066532 
  703000    37.519222   -1.5339222   0.17944038   -1.3544818 
  704000    31.619545   -1.5334124   0.15122444    -1.382188 
  705000    30.890703   -1.5754886   0.14773866   -1.4277499 
  706000    28.433601   -1.6026496   0.13598726   -1.4666623 
  707000    28.579526   -1.5701993   0.13668517   -1.4335142 
  708000    27.926759   -1.5466852   0.13356323   -1.4131219 
  709000    24.601959   -1.5992212   0.11766195   -1.4815593 
  710000    28.997343   -1.5895699   0.13868343   -1.4508865 
  711000    28.537498   -1.6016986   0.13648416   -1.4652144 
  712000    28.722534   -1.5609132   0.13736912   -1.4235441 
  713000    26.766769   -1.5603569   0.12801543   -1.4323415 
  714000    28.462262   -1.5687402   0.13612433   -1.4326158 
  715000    30.838755   -1.5974671   0.14749021   -1.4499769 
  716000    27.474873   -1.5946582   0.13140203   -1.4632561 
  717000    23.797977   -1.5921775   0.11381681   -1.4783607 
  718000     24.62948   -1.5823687   0.11779358   -1.4645751 
  719000    26.134117   -1.5507588   0.12498969   -1.4257691 
  720000    30.668516   -1.5571378   0.14667602   -1.4104618 
  721000     38.80797   -1.5604482   0.18560398   -1.3748442 
  722000    29.939288   -1.5703155    0.1431884   -1.4271271 
  723000    24.846735    -1.535083   0.11883262   -1.4162504 
  724000    29.674596   -1.5739543   0.14192248   -1.4320318 
  725000    34.633198    -1.566887   0.16563761   -1.4012494 
  726000    24.823495   -1.5603777   0.11872148   -1.4416562 
  727000    24.368603    -1.588148    0.1165459   -1.4716021 
  728000    26.031314   -1.5874347   0.12449802   -1.4629367 
  729000    28.869268   -1.5948037   0.13807089   -1.4567328 
  730000      22.0864   -1.5511066   0.10563098   -1.4454756 
  731000    25.563395    -1.601635   0.12226014   -1.4793748 
  732000     27.96432   -1.5699031   0.13374286   -1.4361602 
  733000    32.441743   -1.4713749    0.1551567   -1.3162182 
  734000    29.751032   -1.4913474   0.14228804   -1.3490593 
  735000    30.867959   -1.5801088   0.14762988   -1.4324789 
  736000    27.908883   -1.5672779   0.13347773   -1.4338001 
  737000    27.219373   -1.6210492   0.13018006   -1.4908692 
  738000      24.8042   -1.5647762    0.1186292    -1.446147 
  739000    33.061929   -1.5630393   0.15812282   -1.4049165 
  740000     26.17814   -1.5480163   0.12520023   -1.4228161 
  741000    29.387425   -1.5968958   0.14054905   -1.4563468 
  742000     22.22427   -1.5630406   0.10629036   -1.4567502 
  743000    31.606002   -1.5646099   0.15115967   -1.4134503 
  744000    31.550011   -1.5842973   0.15089188   -1.4334054 
  745000    30.838283    -1.545809   0.14748795    -1.398321 
  746000    24.779338   -1.5737062   0.11851029   -1.4551959 
  747000    31.478488   -1.5644108   0.15054981   -1.4138609 
  748000    24.809185   -1.5696192   0.11865304   -1.4509661 
  749000    28.600811   -1.6011258   0.13678697   -1.4643389 
  750000    28.860867   -1.5891035   0.13803072   -1.4510727 
  751000      21.3571     -1.59919   0.10214301    -1.497047 
  752000    32.035126   -1.5607315     0.153212   -1.4075195 
  753000    26.022116    -1.602946   0.12445403    -1.478492 
  754000    27.090911   -1.6106995   0.12956568   -1.4811338 
  755000    22.920516   -1.5340487   0.10962024   -1.4244284 
  756000    38.867213   -1.5513178   0.18588732   -1.3654305 
  757000    24.763728   -1.5541656   0.11843563   -1.4357299 
  758000    35.096223   -1.5507435   0.16785209   -1.3828914 
  759000    35.810998   -1.5344159   0.17127059   -1.3631453 
  760000    30.606614   -1.5432227   0.14637997   -1.3968427 
  761000    26.737537   -1.5715079   0.12787562   -1.4436322 
  762000    35.566681   -1.5869165   0.17010211   -1.4168144 
  763000    20.670139   -1.5875728   0.09885753   -1.4887153 
  764000    31.276747   -1.5913726   0.14958496   -1.4417876 
  765000     25.87901   -1.5635151   0.12376961   -1.4397455 
  766000    32.662766   -1.5293121   0.15621378   -1.3730984 
  767000    31.054804   -1.5352412   0.14852349   -1.3867177 
  768000    33.320559   -1.5572388   0.15935975    -1.397879 
  769000    28.872336   -1.5282159   0.13808557   -1.3901303 
  770000    29.333149    -1.518075   0.14028946   -1.3777855 
  771000    36.244389   -1.5148511   0.17334333   -1.3415078 
  772000    29.704189   -1.5507227   0.14206401   -1.4086586 
  773000    27.005374   -1.4429698   0.12915659   -1.3138132 
  774000    38.438619    -1.517491   0.18383752   -1.3336535 
  775000    32.300222   -1.5111624   0.15447986   -1.3566825 
  776000    34.061586   -1.5510947   0.16290381   -1.3881909 
  777000     34.15703   -1.5547705   0.16336028   -1.3914102 
  778000    27.098514   -1.5250812   0.12960204   -1.3954791 
  779000    34.087925   -1.5825018   0.16302978    -1.419472 
  780000    38.802727   -1.6066358    0.1855789   -1.4210569 
  781000    35.025528   -1.5967892   0.16751398   -1.4292753 
  782000    29.593568   -1.5902045   0.14153495   -1.4486696 
  783000    27.660558   -1.6212163   0.13229009   -1.4889262 
  784000    26.814523   -1.5923203   0.12824382   -1.4640765 
  785000    37.920856   -1.5746667   0.18136125   -1.3933054 
  786000    37.221355   -1.5192771    0.1780158   -1.3412613 
  787000     36.50187     -1.58441   0.17457477   -1.4098352 
  788000    26.943381   -1.5212688    0.1288601   -1.3924087 
  789000    30.322647   -1.5393454   0.14502186   -1.3943236 
  790000    33.114186   -1.5560468   0.15837275    -1.397674 
  791000    35.501451   -1.5419985   0.16979014   -1.3722083 
  792000    29.809396   -1.5191359   0.14256717   -1.3765687 
  793000    37.172742   -1.4582243    0.1777833    -1.280441 
  794000    31.323344   -1.5421805   0.14980782   -1.3923727 
  795000    36.860995   -1.5339021   0.17629233   -1.3576098 
  796000    29.997299    -1.491285   0.14346584   -1.3478192 
  797000    33.397261   -1.4863352   0.15972659   -1.3266087 
  798000    33.585499   -1.5031972   0.16062686   -1.3425703 
  799000    28.494157   -1.4879901   0.13627688   -1.3517132 
  800000    30.187023   -1.5330125   0.14437322   -1.3886393 
  801000    31.341273   -1.5009702   0.14989357   -1.3510767 
  802000    36.699585   -1.5220641   0.17552037   -1.3465438 
  803000    34.530489   -1.5321854   0.16514639    -1.367039 
  804000    30.288712   -1.5457534   0.14485956   -1.4008938 
  805000    30.737569   -1.5058724   0.14700628   -1.3588661 
  806000     30.16839   -1.5335961    0.1442841    -1.389312 
  807000    34.517509   -1.5049387   0.16508432   -1.3398544 
  808000    29.374846   -1.5045384   0.14048888   -1.3640495 
  809000    35.120933   -1.5331191   0.16797026   -1.3651488 
  810000    29.731796   -1.4527252   0.14219604   -1.3105291 
  811000     36.06568   -1.4863889   0.17248864   -1.3139003 
  812000    31.698337   -1.5019373   0.15160127    -1.350336 
  813000    31.815727   -1.5213949    0.1521627   -1.3692321 
  814000    30.945019   -1.5503483   0.14799843   -1.4023499 
  815000    30.867495   -1.5438092   0.14762767   -1.3961815 
  816000    36.839327   -1.5158888    0.1761887   -1.3397001 
  817000    35.220241   -1.5518092   0.16844522   -1.3833639 
  818000    31.654044   -1.5209592   0.15138944   -1.3695697 
  819000    26.778306   -1.4957149   0.12807061   -1.3676443 
  820000    34.205139   -1.5022646   0.16359037   -1.3386743 
  821000    27.497386   -1.5073784   0.13150969   -1.3758687 
  822000    27.313631   -1.5037735   0.13063087   -1.3731426 
  823000    36.869588   -1.5171217   0.17633343   -1.3407883 
  824000    32.668688   -1.5284165    0.1562421   -1.3721744 
  825000    32.274386   -1.5280877    0.1543563   -1.3737314 
  826000    34.006723   -1.5371253   0.16264142   -1.3744839 
  827000     29.20434   -1.5438226   0.13967342   -1.4041492 
  828000    30.558864   -1.5594905    0.1461516   -1.4133389 
  829000    28.604079   -1.5736803   0.13680259   -1.4368777 
  830000    26.772132   -1.5109932   0.12804108   -1.3829522 
  831000    28.193091   -1.5447315   0.13483699   -1.4098945 
  832000    28.930039   -1.5670596   0.13836154   -1.4286981 
  833000    30.904133   -1.5196297   0.14780289   -1.3718268 
  834000    33.047872   -1.5608503   0.15805559   -1.4027948 
  835000    34.778026   -1.5404408   0.16633027   -1.3741105 
  836000    31.422048   -1.5808882   0.15027988   -1.4306083 
  837000    29.453573    -1.600442   0.14086541   -1.4595766 
  838000     32.38941   -1.5894567   0.15490641   -1.4345503 
  839000    36.719002   -1.5640202   0.17561323   -1.3884069 
  840000    26.662116   -1.5718243   0.12751491   -1.4443094 
  841000    23.706028   -1.5864876   0.11337705   -1.4731106 
  842000     25.67842   -1.5796999   0.12281027   -1.4568896 
  843000    26.112415   -1.5642953    0.1248859   -1.4394094 
  844000    23.311585   -1.6315095   0.11149058   -1.5200189 
  845000    28.573998   -1.5558844   0.13665873   -1.4192257 
  846000    25.157381   -1.5977394   0.12031833   -1.4774211 
  847000    28.920259   -1.6029763   0.13831476   -1.4646615 
  848000    28.381246   -1.5414592   0.13573687   -1.4057223 
  849000    34.627658   -1.5078329   0.16561111   -1.3422218 
  850000    29.479386   -1.4834423   0.14098886   -1.3424535 
  851000     28.91597    -1.525914   0.13829425   -1.3876197 
  852000    39.161097   -1.4751075   0.18729285   -1.2878147 
  853000    29.754199   -1.5623247   0.14230319   -1.4200215 
  854000    29.315475   -1.4995474   0.14020493   -1.3593424 
  855000    35.151698   -1.5672483    0.1681174   -1.3991309 
  856000    34.608534   -1.5234959   0.16551965   -1.3579762 
  857000    31.892437    -1.580389   0.15252958   -1.4278594 
  858000    24.812429   -1.5683582   0.11866855   -1.4496897 
  859000    24.969218   -1.5858495   0.11941842   -1.4664311 
  860000    29.254601   -1.5736004    0.1399138   -1.4336866 
  861000    19.236602   -1.5874458  0.092001459   -1.4954443 
  862000    27.903319   -1.5536442   0.13345112   -1.4201931 
  863000    25.855041   -1.5889932   0.12365497   -1.4653382 
  864000    23.369008   -1.5366158   0.11176521   -1.4248506 
  865000    29.552332   -1.5745096   0.14133773   -1.4331718 
  866000    23.748172   -1.5930635   0.11357861   -1.4794849 
  867000    29.123906    -1.582892   0.13928873   -1.4436032 
  868000    23.114889   -1.5881241   0.11054986   -1.4775742 
  869000    28.235946   -1.5813383   0.13504195   -1.4462964 
  870000    24.359229   -1.6018355   0.11650107   -1.4853344 
  871000    31.616217   -1.5971201   0.15120852   -1.4459115 
  872000    24.385644   -1.5816766    0.1166274   -1.4650492 
  873000    25.544441   -1.5700009   0.12216949   -1.4478314 
  874000    23.316273   -1.6071402     0.111513   -1.4956272 
  875000    24.606733   -1.6119631   0.11768478   -1.4942783 
  876000    27.850246   -1.5567161   0.13319729   -1.4235188 
  877000    25.537459   -1.5575938    0.1221361   -1.4354577 
  878000    23.652963   -1.5890417   0.11312326   -1.4759185 
  879000    17.936513   -1.6396216   0.08578362    -1.553838 
  880000    17.162815   -1.5912855  0.082083316   -1.5092021 
  881000    25.461908   -1.5444445   0.12177477   -1.4226698 
  882000    31.658154    -1.629409   0.15140909   -1.4779999 
  883000    18.967879   -1.6204232  0.090716258    -1.529707 
  884000    24.610334   -1.5832389   0.11770201   -1.4655369 
  885000    28.742838    -1.596348   0.13746623   -1.4588818 
  886000    23.717956   -1.6199174    0.1134341   -1.5064833 
  887000    25.646698    -1.579816   0.12265855   -1.4571575 
  888000    32.839433   -1.5850796    0.1570587   -1.4280209 
  889000    23.624954   -1.5765501    0.1129893   -1.4635608 
  890000      32.9551    -1.609593    0.1576119   -1.4519811 
  891000    28.172409   -1.5914507   0.13473808   -1.4567126 
  892000    23.453202   -1.6032522   0.11216788   -1.4910843 
  893000    24.925375   -1.6090641   0.11920873   -1.4898553 
  894000    26.137099   -1.5680947   0.12500395   -1.4430907 
  895000    25.634544    -1.607012   0.12260042   -1.4844116 
  896000    33.750594   -1.5498674   0.16141645   -1.3884509 
  897000    28.078182   -1.5850822   0.13428742   -1.4507947 
  898000    26.249028   -1.5728044   0.12553927   -1.4472652 
  899000    23.440307   -1.5525261   0.11210621   -1.4404198 
  900000    29.119423    -1.612903   0.13926729   -1.4736357 
  901000     27.10062   -1.5638482   0.12961211   -1.4342361 
  902000    29.700866   -1.5649725   0.14204812   -1.4229244 
  903000    32.776911   -1.5830189   0.15675969   -1.4262593 
  904000    22.514542   -1.6024489   0.10767862   -1.4947703 
  905000    25.903863   -1.6072185   0.12388847   -1.4833301 
  906000    26.630381   -1.5812532   0.12736314   -1.4538901 
  907000    19.065201   -1.5513595  0.091181713   -1.4601778 
  908000    32.735399   -1.5864209   0.15656115   -1.4298597 
  909000    27.614834   -1.5522085   0.13207141   -1.4201371 
  910000    26.899062   -1.5664999   0.12864814   -1.4378518 
  911000    30.654066   -1.5946699   0.14660691    -1.448063 
  912000    26.262188   -1.5862284   0.12560221   -1.4606262 
  913000    23.134479   -1.5747621   0.11064355   -1.4641186 
  914000    25.584942   -1.5861946   0.12236319   -1.4638314 
  915000    26.452607   -1.5789143   0.12651291   -1.4524014 
  916000      22.6637   -1.5540423   0.10839199   -1.4456503 
  917000    28.610548    -1.547025   0.13683353   -1.4101915 
  918000    26.121645   -1.5845768   0.12493004   -1.4596468 
  919000    20.722432    -1.583093  0.099107629   -1.4839854 
  920000    30.653241   -1.5458648   0.14660297   -1.3992619 
  921000      37.5346   -1.5317818   0.17951393   -1.3522679 
  922000    35.847195   -1.5155933    0.1714437   -1.3441496 
  923000    42.433194   -1.5754232   0.20294207   -1.3724811 
  924000    25.601732   -1.6190618   0.12244349   -1.4966183 
  925000    31.515837   -1.5629395   0.15072844   -1.4122111 
  926000    23.309675   -1.5884276   0.11148144   -1.4769461 
  927000    23.449827   -1.5899571   0.11215174   -1.4778054 
  928000     25.37713   -1.6138104   0.12136931   -1.4924411 
  929000    18.789847   -1.6140257  0.089864797   -1.5241609 
  930000    26.045139   -1.5866387   0.12456414   -1.4620746 
  931000    21.297422   -1.6335929   0.10185759   -1.5317353 
  932000     21.24107   -1.6087998   0.10158808   -1.5072117 
  933000    25.877734   -1.5180952   0.12376351   -1.3943317 
  934000    26.150506   -1.5908633   0.12506807   -1.4657952 
  935000    34.081174   -1.5457107   0.16299749   -1.3827132 
  936000    32.419595   -1.4445429   0.15505078   -1.2894921 
  937000    26.179379   -1.5307642   0.12520616   -1.4055581 
  938000    39.359514   -1.5296513   0.18824181   -1.3414095 
  939000    31.089312   -1.4880331   0.14868853   -1.3393446 
  940000     29.35008   -1.5693095   0.14037044   -1.4289391 
  941000    25.992511   -1.6069825   0.12431244   -1.4826701 
  942000    31.022232   -1.5732238   0.14836771   -1.4248561 
  943000    31.870399    -1.588245   0.15242418   -1.4358208 
  944000    26.553197   -1.5862199   0.12699399   -1.4592259 
  945000    22.528829   -1.5793049   0.10774695   -1.4715579 
  946000    28.395066   -1.5775667   0.13580296   -1.4417637 
  947000    28.815992   -1.5956884   0.13781609   -1.4578723 
  948000    25.627366   -1.5785515   0.12256609   -1.4559854 
  949000    28.152647   -1.6092305   0.13464356   -1.4745869 
  950000    26.787169   -1.6006622   0.12811299   -1.4725492 
  951000    29.438767   -1.5745187   0.14079459   -1.4337241 
  952000     22.91527    -1.591854   0.10959515   -1.4822589 
  953000    32.977922   -1.5866088   0.15772105   -1.4288877 
  954000     23.75958   -1.6080796   0.11363317   -1.4944464 
  955000    26.639647   -1.5463864   0.12740745    -1.418979 
  956000    22.903169   -1.5915529   0.10953727   -1.4820156 
  957000    26.147894    -1.586722   0.12505558   -1.4616664 
  958000    25.829894   -1.6201523   0.12353471   -1.4966176 
  959000    27.884108   -1.5777639   0.13335924   -1.4444047 
  960000    27.723725   -1.5945424   0.13259219   -1.4619502 
  961000    27.619243   -1.6152612   0.13209249   -1.4831687 
  962000    25.749214    -1.574548   0.12314884   -1.4513991 
  963000    31.834419   -1.5387795    0.1522521   -1.3865274 
  964000    25.846485   -1.5519951   0.12361405    -1.428381 
  965000    23.607603   -1.6104813   0.11290632    -1.497575 
  966000    28.414692   -1.5771399   0.13589683    -1.441243 
  967000    21.432326   -1.5344944   0.10250279   -1.4319917 
  968000    30.741733   -1.5267227   0.14702619   -1.3796965 
  969000    31.053779   -1.5613999   0.14851859   -1.4128813 
  970000    28.633943   -1.5855607   0.13694542   -1.4486153 
  971000    27.035149   -1.5130259   0.12929899   -1.3837269 
  972000    41.343167   -1.5516461   0.19772888   -1.3539172 
  973000    26.236163   -1.6084042   0.12547774   -1.4829264 
  974000    30.166844   -1.5756308   0.14427671   -1.4313541 
  975000    27.806437    -1.587058   0.13298777   -1.4540702 
  976000    31.008579   -1.4692726   0.14830242   -1.3209702 
  977000    40.616412   -1.4925165   0.19425308   -1.2982635 
  978000    35.796415   -1.5191118   0.17120084   -1.3479109 
  979000    30.360359   -1.5990628   0.14520222   -1.4538606 
  980000    27.660521   -1.5564043   0.13228991   -1.4241144 
  981000    25.480503   -1.5819863    0.1218637   -1.4601226 
  982000    25.371389   -1.5762375   0.12134185   -1.4548956 
  983000    26.099675   -1.5804795   0.12482497   -1.4556546 
  984000     25.52691   -1.5880942   0.12208565   -1.4660086 
  985000    26.963801   -1.5914883   0.12895776   -1.4625306 
  986000    27.326038    -1.580778    0.1306902   -1.4500878 
  987000    28.800412   -1.5888492   0.13774158   -1.4511076 
  988000    28.015979    -1.532616   0.13398993    -1.398626 
  989000     33.42921   -1.5045438   0.15987939   -1.3446644 
  990000    36.431654   -1.5013259   0.17423895   -1.3270869 
  991000    46.674551   -1.4461601   0.22322689   -1.2229332 
  992000    34.864719   -1.4110625   0.16674489   -1.2443176 
  993000    35.239825   -1.4514675   0.16853888   -1.2829286 
  994000    43.429093   -1.4603028   0.20770508   -1.2525977 
  995000    37.657801    -1.466944   0.18010315   -1.2868408 
  996000     25.03397   -1.5054176    0.1197281   -1.3856895 
  997000    36.645661   -1.4872778   0.17526247   -1.3120153 
  998000    28.847169   -1.5117106    0.1379652   -1.3737454 
  999000    40.547651   -1.4742257   0.19392422   -1.2803015 
 1000000    34.308797   -1.5220488   0.16408612   -1.3579627 
 1001000    29.223016   -1.5052895   0.13976274   -1.3655268 
 1002000    30.644449   -1.5135392   0.14656092   -1.3669783 
 1003000    39.372965   -1.5392647   0.18830614   -1.3509585 
 1004000    31.466154    -1.494257   0.15049083   -1.3437661 
 1005000    32.613768   -1.5471282   0.15597944   -1.3911488 
 1006000    25.868283   -1.5288663   0.12371831    -1.405148 
 1007000    33.009232   -1.5117995   0.15787079   -1.3539287 
 1008000    31.548702   -1.4547912   0.15088562   -1.3039056 
 1009000    38.548433   -1.4725543   0.18436271   -1.2881916 
 1010000    38.988763   -1.5319455   0.18646865   -1.3454769 
 1011000    31.144488   -1.4706875   0.14895242   -1.3217351 
 1012000    36.543399   -1.5196993   0.17477339   -1.3449259 
 1013000    38.663897   -1.4498324   0.18491494   -1.2649175 
 1014000    37.556494   -1.4589122   0.17961864   -1.2792935 
 1015000    30.450017   -1.5125987   0.14563102   -1.3669677 
 1016000    38.816868   -1.5240149   0.18564654   -1.3383683 
 1017000    33.911727   -1.4836356   0.16218709   -1.3214485 
 1018000    39.801581   -1.5056217   0.19035605   -1.3152657 
 1019000    40.446041   -1.5104587   0.19343826   -1.3170204 
 1020000     38.33744   -1.5265649   0.18335361   -1.3432113 
 1021000     30.54235   -1.5223752   0.14607262   -1.3763026 
 1022000    31.911053    -1.581627   0.15261861   -1.4290084 
 1023000    33.429679   -1.5151446   0.15988163    -1.355263 
 1024000     26.61604    -1.561659   0.12729455   -1.4343644 
 1025000    31.150313   -1.4931742   0.14898028   -1.3441939 
 1026000    31.117202   -1.5940179   0.14882192   -1.4451959 
 1027000    41.430922   -1.5394428   0.19814858   -1.3412942 
 1028000    31.938104   -1.4749689   0.15274799   -1.3222209 
 1029000    33.996816   -1.5377348   0.16259403   -1.3751408 
 1030000    34.677977   -1.5312635   0.16585177   -1.3654117 
 1031000    39.849751   -1.5406451   0.19058643   -1.3500587 
 1032000    35.511798   -1.5473894   0.16983962   -1.3775498 
 1033000    35.422317   -1.5558421   0.16941167   -1.3864305 
 1034000    29.127138   -1.4996961   0.13930419   -1.3603919 
 1035000    34.201847   -1.5326864   0.16357462   -1.3691117 
 1036000    41.254389   -1.4823616   0.19730429   -1.2850573 
 1037000    31.112932   -1.5849094    0.1488015   -1.4361079 
 1038000    37.818621   -1.4896709    0.1808723   -1.3087986 
 1039000    30.443583   -1.5413314   0.14560025   -1.3957311 
 1040000    27.811943   -1.5072292    0.1330141   -1.3742151 
 1041000    36.066183   -1.5254355   0.17249104   -1.3529445 
 1042000    29.118959    -1.524652   0.13926507   -1.3853869 
 1043000    32.195403   -1.5450583   0.15397855   -1.3910797 
 1044000    31.087807   -1.5259953   0.14868133    -1.377314 
 1045000    33.043021   -1.5796168   0.15803239   -1.4215844 
 1046000    24.309275   -1.5934986   0.11626216   -1.4772364 
 1047000    21.398741   -1.5588406   0.10234216   -1.4564984 
 1048000    22.977938   -1.5456899   0.10989487    -1.435795 
 1049000    33.634974   -1.5429844   0.16086348   -1.3821209 
 1050000    40.975824   -1.5640717   0.19597202   -1.3680997 
 1051000     30.70486   -1.5104937   0.14684984   -1.3636438 
 1052000    37.391548   -1.5608281   0.17882976   -1.3819983 
 1053000    31.595004   -1.5641916   0.15110707   -1.4130846 
 1054000    27.331676   -1.5204409   0.13071717   -1.3897238 
 1055000    27.707773     -1.55342    0.1325159   -1.4209041 
 1056000     30.19603   -1.5743783    0.1444163    -1.429962 
 1057000    26.373045   -1.5987483   0.12613239   -1.4726159 
 1058000    27.532882   -1.5626392   0.13167946   -1.4309597 
 1059000    24.818243   -1.5998689   0.11869636   -1.4811725 
 1060000     26.50695   -1.5770597   0.12677281   -1.4502869 
 1061000    29.039591   -1.6022569   0.13888548   -1.4633714 
 1062000    25.381452   -1.6031541   0.12138997   -1.4817642 
 1063000    27.965239   -1.6145216   0.13374726   -1.4807743 
 1064000    24.641145   -1.5792367   0.11784937   -1.4613873 
 1065000    18.820226   -1.5904806  0.090010091   -1.5004705 
 1066000    20.941962   -1.6004569   0.10015756   -1.5002993 
 1067000    28.702507   -1.5536298   0.13727334   -1.4163565 
 1068000    31.709099    -1.576462   0.15165274   -1.4248093 
 1069000    23.222297   -1.6126648   0.11106355   -1.5016012 
 1070000    19.099481   -1.6034704  0.091345661   -1.5121247 
 1071000    30.585016   -1.6047336   0.14627668   -1.4584569 
 1072000    30.258802   -1.6283958   0.14471651   -1.4836793 
 1073000    23.350666   -1.6223375   0.11167749     -1.51066 
 1074000    21.777045   -1.6332624   0.10415145    -1.529111 
 1075000    22.733481   -1.6315696   0.10872572   -1.5228439 
 1076000    19.780232   -1.6267072  0.094601437   -1.5321057 
 1077000    29.726241   -1.5730167   0.14216948   -1.4308472 
 1078000    31.359601   -1.6187546   0.14998122   -1.4687734 
 1079000    30.062138    -1.576979   0.14377594    -1.433203 
 1080000    26.063982   -1.5940573   0.12465426    -1.469403 
 1081000    26.100588   -1.5918045   0.12482933   -1.4669752 
 1082000    31.463537   -1.6105106   0.15047831   -1.4600323 
 1083000    23.250502   -1.5644876   0.11119844   -1.4532892 
 1084000    23.508661   -1.6183842   0.11243312   -1.5059511 
 1085000     27.17335   -1.5837206   0.12995995   -1.4537607 
 1086000    27.133904   -1.5725703    0.1297713    -1.442799 
 1087000    24.941982   -1.5824455   0.11928816   -1.4631573 
 1088000    26.798076   -1.5797356   0.12816516   -1.4515704 
 1089000    24.778225   -1.6120634   0.11850497   -1.4935584 
 1090000    22.739539   -1.5858332    0.1087547   -1.4770785 
 1091000    25.934573   -1.5718953   0.12403535     -1.44786 
 1092000    28.404053   -1.5878475   0.13584594   -1.4520016 
 1093000    21.781778   -1.5690414   0.10417408   -1.4648673 
 1094000    27.170106   -1.5742656   0.12994444   -1.4443211 
 1095000    22.619228   -1.6019205   0.10817929   -1.4937412 
 1096000    22.289523     -1.60987   0.10660244   -1.5032675 
 1097000    32.031278   -1.5772453    0.1531936   -1.4240517 
 1098000    24.953782   -1.5992129   0.11934459   -1.4798683 
 1099000    18.644435   -1.5769434  0.089169348    -1.487774 
 1100000    28.711478    -1.567959   0.13731624   -1.4306427 
 1101000    28.103182   -1.5999897   0.13440699   -1.4655827 
 1102000    24.279602   -1.5750115   0.11612024   -1.4588912 
 1103000    23.528518   -1.5668228   0.11252809   -1.4542947 
 1104000     33.14701   -1.5102455   0.15852973   -1.3517158 
 1105000    35.830229   -1.5034228   0.17136256   -1.3320603 
 1106000    24.527954   -1.5225143   0.11730801   -1.4052063 
 1107000    25.660683   -1.5458387   0.12272543   -1.4231133 
 1108000    29.338277   -1.5393269   0.14031399   -1.3990129 
 1109000    33.499942   -1.5607437   0.16021767    -1.400526 
 1110000    33.725321   -1.5414125   0.16129557    -1.380117 
 1111000    34.065082   -1.5409383   0.16292052   -1.3780178 
 1112000    23.699877   -1.5947655   0.11334763   -1.4814179 
 1113000    25.491151    -1.646886   0.12191462   -1.5249714 
 1114000    21.967329     -1.59479   0.10506151   -1.4897285 
 1115000    21.182613   -1.6228457    0.1013085   -1.5215372 
 1116000    23.558052   -1.6087745   0.11266934   -1.4961052 
 1117000    24.730014   -1.6285482   0.11827439   -1.5102738 
 1118000    27.942385    -1.626589   0.13363796    -1.492951 
 1119000    25.379185   -1.6365977   0.12137913   -1.5152186 
 1120000    26.106281   -1.5904525   0.12485656    -1.465596 
 1121000    27.475181   -1.5851225    0.1314035    -1.453719 
 1122000    18.429272   -1.6038615  0.088140306   -1.5157212 
 1123000    28.816195   -1.6071255   0.13781706   -1.4693085 
 1124000    27.102553   -1.5872019   0.12962136   -1.4575805 
 1125000    23.964761   -1.5691545   0.11461447   -1.4545401 
 1126000     27.24296   -1.5858486   0.13029287   -1.4555558 
 1127000    31.047344   -1.6195817   0.14848782   -1.4710939 
 1128000    23.497595   -1.5791571    0.1123802   -1.4667769 
 1129000    24.496759   -1.5884368   0.11715882    -1.471278 
 1130000    25.493884   -1.6050771    0.1219277   -1.4831494 
 1131000    26.135758   -1.5758806   0.12499754   -1.4508831 
 1132000    29.246845   -1.6162641    0.1398767   -1.4763874 
 1133000    27.405481    -1.613899   0.13107015   -1.4828289 
 1134000     20.02888   -1.6432892   0.09579063   -1.5474986 
 1135000    24.493697   -1.6414362   0.11714418    -1.524292 
 1136000    19.451889   -1.6091659  0.093031098   -1.5161348 
 1137000    17.821529   -1.6264678  0.085233696   -1.5412341 
 1138000    23.664279   -1.6127691   0.11317738   -1.4995917 
 1139000    24.597527   -1.6051032   0.11764076   -1.4874624 
 1140000     18.83369   -1.6371404  0.090074482   -1.5470659 
 1141000    21.243365   -1.6139658   0.10159906   -1.5123667 
 1142000    16.690538   -1.6472361  0.079824591   -1.5674115 
 1143000    22.087503   -1.6219556   0.10563625   -1.5163194 
 1144000    22.656124   -1.6282403   0.10835575   -1.5198845 
 1145000    21.254547   -1.5995755   0.10165254    -1.497923 
 1146000     15.35901   -1.6545248  0.073456391   -1.5810684 
 1147000    24.761058    -1.597468   0.11842286   -1.4790452 
 1148000    21.150703   -1.6223598   0.10115589   -1.5212039 
 1149000    19.269128   -1.6401666  0.092157019   -1.5480096 
 1150000    20.580832   -1.6103329   0.09843041   -1.5119025 
 1151000    25.329704   -1.6131559   0.12114249   -1.4920134 
 1152000    19.443055   -1.6177167  0.092988849   -1.5247279 
 1153000    23.033936   -1.6306662   0.11016269   -1.5205035 
 1154000    17.879021   -1.6082991  0.085508659   -1.5227904 
 1155000     25.75623   -1.6012088    0.1231824   -1.4780264 
 1156000    20.628321   -1.6347803  0.098657532   -1.5361227 
 1157000    23.655019   -1.6035217    0.1131331   -1.4903886 
 1158000    25.081819   -1.6217068   0.11995694   -1.5017499 
 1159000    19.307746   -1.6265592  0.092341717   -1.5342175 
 1160000    21.012859   -1.6115642   0.10049663   -1.5110675 
 1161000    22.639917   -1.6546594   0.10827824   -1.5463812 
 1162000    24.989832   -1.5839715   0.11951701   -1.4644544 
 1163000     25.94136   -1.6110243   0.12406781   -1.4869564 
 1164000    18.744272   -1.6166373  0.089646828   -1.5269905 
 1165000    22.229633   -1.5978591   0.10631601   -1.4915431 
 1166000    24.806947   -1.6140626   0.11864234   -1.4954203 
 1167000    21.737092   -1.6126688   0.10396037   -1.5087084 
 1168000    20.066531   -1.5908636  0.095970698   -1.4948929 
 1169000    22.152462   -1.6136608   0.10594693   -1.5077139 
 1170000    24.783959   -1.5949228   0.11853239   -1.4763905 
 1171000    24.886029    -1.620952   0.11902056   -1.5019314 
 1172000    26.080625   -1.6176263   0.12473386   -1.4928924 
 1173000    17.308118   -1.5727118  0.082778245   -1.4899335 
 1174000    21.266233   -1.6089178   0.10170843   -1.5072094 
 1175000    17.924734    -1.621879  0.085727289   -1.5361517 
 1176000    20.081222   -1.6394621  0.096040961   -1.5434211 
 1177000    19.950524   -1.6225629   0.09541588    -1.527147 
 1178000    19.672526   -1.6378025  0.094086322   -1.5437162 
 1179000    26.504564   -1.6318831    0.1267614   -1.5051217 
 1180000    26.101146   -1.6141322     0.124832   -1.4893002 
 1181000     22.69644   -1.6230817   0.10854857   -1.5145332 
 1182000    19.638381   -1.6329197  0.093923018   -1.5389967 
 1183000    21.140687   -1.6285235   0.10110799   -1.5274155 
 1184000    24.320036   -1.6096377   0.11631362    -1.493324 
 1185000    19.649284   -1.6444192  0.093975163    -1.550444 
 1186000    22.920553    -1.624436   0.10962042   -1.5148156 
 1187000    20.299068   -1.6246459  0.097082839   -1.5275631 
 1188000    21.928773   -1.6013542   0.10487711   -1.4964771 
 1189000    17.577222   -1.6271651  0.084065269   -1.5430998 
 1190000    21.494323   -1.6156037   0.10279929   -1.5128044 
 1191000    24.169254   -1.5970805   0.11559249   -1.4814881 
 1192000    18.941243   -1.6577882  0.090588871   -1.5671993 
 1193000    17.405027   -1.6088122  0.083241726   -1.5255705 
 1194000    27.551967   -1.5723347   0.13177074    -1.440564 
 1195000    32.531847   -1.5740711   0.15558764   -1.4184835 
 1196000    27.564349   -1.5735989   0.13182995   -1.4417689 
 1197000    28.825532   -1.5533374   0.13786172   -1.4154757 
 1198000    32.071837   -1.5681678   0.15338758   -1.4147802 
 1199000    41.879812   -1.4959571   0.20029545   -1.2956617 
 1200000    30.400969   -1.4797416   0.14539645   -1.3343452 
 1201000    33.867256   -1.5635718    0.1619744   -1.4015974 
 1202000    33.489488    -1.499149   0.16016768   -1.3389813 
 1203000    42.490241   -1.5545921   0.20321491   -1.3513772 
 1204000    29.458988     -1.49174    0.1408913   -1.3508487 
 1205000    32.228512    -1.565218    0.1541369   -1.4110811 
 1206000    29.158916   -1.5232063   0.13945617   -1.3837501 
 1207000    38.574016   -1.5997284   0.18448507   -1.4152433 
 1208000    28.778129   -1.6403653   0.13763501   -1.5027303 
 1209000     24.07296   -1.5593517   0.11513195   -1.4442198 
 1210000     23.58828   -1.5920251   0.11281391   -1.4792112 
 1211000     26.81976   -1.5875385   0.12826886   -1.4592697 
 1212000     23.77812   -1.5879034   0.11372184   -1.4741816 
 1213000    24.903629   -1.5916747   0.11910473     -1.47257 
 1214000    27.134515   -1.6091479   0.12977422   -1.4793736 
 1215000    26.641684   -1.5667603   0.12741719   -1.4393431 
 1216000    23.652122   -1.6084549   0.11311924   -1.4953357 
 1217000    24.908294   -1.5985822   0.11912704   -1.4794551 
 1218000    26.368475    -1.552978   0.12611054   -1.4268675 
 1219000    27.999334   -1.6104137   0.13391032   -1.4765033 
 1220000    27.275382   -1.5782877   0.13044793   -1.4478398 
 1221000    30.111673   -1.5633066   0.14401285   -1.4192938 
 1222000    32.246836   -1.5347384   0.15422454   -1.3805139 
 1223000    30.759111   -1.5925006    0.1471093   -1.4453913 
 1224000    32.249229   -1.5389084   0.15423598   -1.3846724 
 1225000    27.527603   -1.5520874   0.13165421   -1.4204331 
 1226000    32.812452   -1.5627946   0.15692966   -1.4058649 
 1227000    35.962687   -1.5462459   0.17199606   -1.3742498 
 1228000    36.336129   -1.4540835   0.17378209   -1.2803014 
 1229000    31.722917   -1.5600308   0.15171883    -1.408312 
 1230000    31.711807   -1.5613211   0.15166569   -1.4096554 
 1231000    31.033298   -1.5180026   0.14842064   -1.3695819 
 1232000    40.156798   -1.5571641   0.19205492   -1.3651091 
 1233000    31.222018   -1.5123189   0.14932322   -1.3629957 
 1234000    44.341819    -1.465787   0.21207031   -1.2537167 
 1235000    41.871701   -1.5592012   0.20025666   -1.3589446 
 1236000     38.72196   -1.4512047   0.18519263    -1.266012 
 1237000    36.312543   -1.4648652   0.17366929   -1.2911959 
 1238000    47.205836   -1.4537197   0.22576783   -1.2279519 
 1239000    37.693029   -1.5145246   0.18027164   -1.3342529 
 1240000    33.268372   -1.4755019   0.15911016   -1.3163918 
 1241000    23.740311    -1.526587   0.11354102   -1.4130459 
 1242000    42.060134   -1.4927845   0.20115786   -1.2916267 
 1243000    41.587751   -1.4754169   0.19889863   -1.2765182 
 1244000    31.469072   -1.5195697   0.15050478    -1.369065 
 1245000    31.756208   -1.5032298   0.15187805   -1.3513517 
 1246000    35.486456   -1.5292651   0.16971842   -1.3595467 
 1247000    37.035355   -1.5191242   0.17712623   -1.3419979 
 1248000    31.734984   -1.5397746   0.15177654   -1.3879981 
 1249000    34.680559    -1.458535   0.16586412   -1.2926709 
 1250000    24.933673    -1.574895   0.11924842   -1.4556466 
 1251000    22.313939   -1.5797589   0.10671921   -1.4730397 
 1252000    27.426797   -1.5910302   0.13117209   -1.4598581 
 1253000    26.078445   -1.5904183   0.12472343   -1.4656948 
 1254000    37.375444   -1.4898498   0.17875274    -1.311097 
 1255000    42.810988   -1.4908866   0.20474892   -1.2861376 
 1256000    35.967003   -1.4776627    0.1720167    -1.305646 
 1257000    37.994959   -1.4612613   0.18171566   -1.2795457 
 1258000    41.288959   -1.4941421   0.19746962   -1.2966725 
 1259000    34.535953   -1.4933072   0.16517253   -1.3281347 
 1260000    41.399938   -1.4878512   0.19800039   -1.2898508 
 1261000    39.291533   -1.4618565   0.18791668   -1.2739398 
 1262000    32.900273   -1.4518104   0.15734968   -1.2944607 
 1263000    34.585008   -1.4907188   0.16540714   -1.3253117 
[...]
 4698000    28.405189    -1.598606   0.13585138   -1.4627547 
 4699000    23.900258   -1.5669246   0.11430598   -1.4526186 
 4700000    24.603677   -1.5906392   0.11767017    -1.472969 
 4701000    23.669239   -1.6353934    0.1132011   -1.5221923 
 4702000    22.963607   -1.6080544   0.10982633   -1.4982281 
 4703000     28.61089   -1.6097966   0.13683517   -1.4729615 
 4704000    23.440433    -1.589644   0.11210681   -1.4775372 
 4705000    27.757342   -1.5567368   0.13275297   -1.4239838 
 4706000    31.486068    -1.617153   0.15058607   -1.4665669 
 4707000    21.975916   -1.6531441   0.10510257   -1.5480415 
 4708000    21.759295   -1.6218709   0.10406656   -1.5178044 
 4709000    24.300011   -1.6349165   0.11621785   -1.5186986 
 4710000    17.154268   -1.6277475  0.082042436   -1.5457051 
 4711000    17.836769   -1.6065246  0.085306582    -1.521218 
 4712000    23.012586   -1.5896569   0.11006058   -1.4795963 
 4713000    22.766656   -1.6063851   0.10888439   -1.4975007 
 4714000    33.919433    -1.562053   0.16222394   -1.3998291 
 4715000    28.539202   -1.6143659   0.13649231   -1.4778736 
 4716000    27.073001   -1.5847747   0.12948002   -1.4552947 
 4717000    26.229781   -1.5915653   0.12544722   -1.4661181 
 4718000     27.05556   -1.6407037   0.12939661   -1.5113071 
 4719000     21.64385    -1.612414   0.10351443   -1.5088995 
 4720000    25.206994   -1.6647078   0.12055561   -1.5441522 
 4721000    19.635413   -1.6181564  0.093908826   -1.5242476 
 4722000    22.215141   -1.6399046    0.1062467   -1.5336579 
 4723000    26.139233   -1.6130935   0.12501416   -1.4880793 
 4724000    25.040059    -1.586406   0.11975722   -1.4666488 
 4725000    27.696191   -1.6176109    0.1324605   -1.4851504 
 4726000    23.099737    -1.613117   0.11047739   -1.5026396 
 4727000     19.92079   -1.6333977  0.095273674    -1.538124 
 4728000    23.353345    -1.640936    0.1116903   -1.5292457 
 4729000    21.915042   -1.6403051   0.10481143   -1.5354937 
 4730000    18.652543   -1.6477549  0.089208126   -1.5585467 
 4731000    19.691205   -1.6462841  0.094175658   -1.5521085 
 4732000    27.694321   -1.6080296   0.13245156    -1.475578 
 4733000    24.270731   -1.6389437   0.11607781   -1.5228659 
 4734000    22.263724   -1.6324136   0.10647905   -1.5259346 
 4735000    26.442602   -1.6193876   0.12646506   -1.4929225 
 4736000    27.947854   -1.5860401   0.13366412    -1.452376 
 4737000    28.730837   -1.6170345   0.13740883   -1.4796257 
 4738000     22.70952   -1.6155895   0.10861113   -1.5069784 
 4739000    24.320264   -1.6210267   0.11631471    -1.504712 
 4740000    29.704814   -1.6153974     0.142067   -1.4733304 
 4741000    26.835394   -1.5974457   0.12834364    -1.469102 
 4742000    23.613243   -1.6162249   0.11293329   -1.5032916 
 4743000     22.98929   -1.6389254   0.10994916   -1.5289762 
 4744000    20.703261   -1.6363908  0.099015939   -1.5373749 
 4745000    23.520995   -1.6321843   0.11249211   -1.5196922 
 4746000    16.568329   -1.6424264  0.079240112   -1.5631863 
 4747000    23.589117   -1.6331787   0.11281791   -1.5203608 
 4748000    25.777006   -1.6335492   0.12328176   -1.5102674 
 4749000    22.364479   -1.6409438   0.10696092   -1.5339828 
 4750000    21.085711   -1.6044282   0.10084506   -1.5035831 
 4751000    23.061254   -1.6101317   0.11029334   -1.4998384 
 4752000    21.221592   -1.6461611   0.10149492   -1.5446662 
 4753000    25.166936   -1.6063414   0.12036403   -1.4859774 
 4754000    24.788229   -1.6361529   0.11855281   -1.5176001 
 4755000    17.754122   -1.6228271  0.084911312   -1.5379158 
 4756000     28.39208   -1.6418181   0.13578868   -1.5060294 
 4757000    23.907405   -1.6054728   0.11434016   -1.4911326 
 4758000    22.304113   -1.6433192   0.10667221    -1.536647 
 4759000    23.174977   -1.6522943   0.11083723   -1.5414571 
 4760000    23.245878   -1.6263714   0.11117632   -1.5151951 
 4761000    23.822112   -1.6704952   0.11393224    -1.556563 
 4762000    22.824753   -1.5931332   0.10916224   -1.4839709 
 4763000    24.751688   -1.6658585   0.11837805   -1.5474805 
 4764000    18.446286   -1.6290206  0.088221675   -1.5407989 
 4765000    16.320692   -1.6199541  0.078055756   -1.5418983 
 4766000    22.321228   -1.6486657   0.10675407   -1.5419117 
 4767000    17.867682    -1.637705   0.08545443   -1.5522506 
 4768000    21.442538   -1.6361132   0.10255162   -1.5335616 
 4769000    19.273688   -1.6367854  0.092178827   -1.5446066 
 4770000    17.005119   -1.6126978  0.081329111   -1.5313687 
 4771000    22.831263   -1.6515463   0.10919338   -1.5423529 
 4772000    21.319836   -1.6504622   0.10196479   -1.5484974 
 4773000    17.295091   -1.6228759  0.082715942   -1.5401599 
 4774000    19.037793   -1.6324551   0.09105063   -1.5414044 
 4775000    22.245029   -1.6428371   0.10638964   -1.5364474 
 4776000    23.557856   -1.6258278    0.1126684   -1.5131594 
 4777000    22.698432   -1.6174466    0.1085581   -1.5088885 
 4778000    22.904216   -1.6093171   0.10954228   -1.4997748 
 4779000    21.184765   -1.6302365   0.10131879   -1.5289177 
 4780000    21.280251   -1.6382562   0.10177547   -1.5364808 
 4781000    20.694266   -1.6200116  0.098972923   -1.5210387 
 4782000    24.454854   -1.6121217    0.1169584   -1.4951633 
 4783000    21.964798   -1.6289663    0.1050494   -1.5239169 
 4784000    20.509732   -1.6423399  0.098090363   -1.5442495 
 4785000    21.604052   -1.6257926   0.10332408   -1.5224686 
 4786000    25.158654   -1.6630411   0.12032442   -1.5427167 
 4787000    20.999246   -1.6448931   0.10043153   -1.5444616 
 4788000    19.368265   -1.6397225  0.092631158   -1.5470913 
 4789000    25.175127   -1.6390851    0.1204032   -1.5186819 
 4790000     23.26313   -1.6523173   0.11125883   -1.5410584 
 4791000    18.832195   -1.6180907  0.090067332   -1.5280234 
 4792000    20.630249   -1.6605961  0.098666753   -1.5619294 
 4793000    21.634968   -1.6284441   0.10347195   -1.5249722 
 4794000    20.258673   -1.6041853  0.096889641   -1.5072957 
 4795000    24.244206   -1.6391852   0.11595095   -1.5232342 
 4796000     27.48003   -1.6438753   0.13142669   -1.5124486 
 4797000    19.350649    -1.658449  0.092546905   -1.5659021 
 4798000    20.628932   -1.6212068  0.098660453   -1.5225463 
 4799000    20.083898   -1.6216667   0.09605376   -1.5256129 
 4800000    21.874651   -1.6140966   0.10461826   -1.5094783 
 4801000    22.171877   -1.6381722   0.10603978   -1.5321324 
 4802000    24.757392   -1.6260278   0.11840533   -1.5076225 
 4803000    26.171743   -1.6272873   0.12516964   -1.5021176 
 4804000    24.897613   -1.6321255   0.11907596   -1.5130495 
 4805000    31.283129   -1.6059792   0.14961549   -1.4563637 
 4806000    28.829875   -1.5578225   0.13788249   -1.4199401 
 4807000    33.654135   -1.5301857   0.16095512   -1.3692306 
 4808000    29.925267   -1.5584242   0.14312134   -1.4153029 
 4809000    27.193688   -1.5483347   0.13005722   -1.4182775 
 4810000    32.221932   -1.5472402   0.15410543   -1.3931348 
 4811000     34.53599   -1.5629825    0.1651727   -1.3978098 
 4812000    33.785535   -1.5752777   0.16158356   -1.4136941 
 4813000    25.975008     -1.58925   0.12422873   -1.4650213 
 4814000    26.485378   -1.6094155   0.12666964   -1.4827459 
 4815000    29.251912   -1.5695252   0.13990094   -1.4296243 
 4816000    23.370508   -1.5797871   0.11177238   -1.4680147 
 4817000    26.731909   -1.5883959   0.12784871   -1.4605472 
 4818000     28.67786   -1.5987475   0.13715546   -1.4615921 
 4819000    27.704283   -1.5785122   0.13249921    -1.446013 
 4820000    30.332117   -1.5944805   0.14506715   -1.4494133 
 4821000    29.551679   -1.5811477   0.14133461   -1.4398131 
 4822000    24.643785   -1.5924643   0.11786199   -1.4746023 
 4823000    22.683328   -1.5959131   0.10848586   -1.4874273 
 4824000    28.006346    -1.594811   0.13394386   -1.4608671 
 4825000    25.706302   -1.5673886   0.12294361   -1.4444449 
 4826000    26.062182   -1.6268307   0.12464565    -1.502185 
 4827000    33.215648   -1.6115928     0.158858   -1.4527348 
 4828000    24.389749   -1.5960859   0.11664703   -1.4794389 
 4829000    26.349055   -1.6004728   0.12601766   -1.4744551 
 4830000    30.358702   -1.6363612    0.1451943   -1.4911669 
 4831000    23.647207   -1.5708935   0.11309573   -1.4577978 
 4832000    27.316174   -1.6263259   0.13064303   -1.4956828 
 4833000    25.439618     -1.63196   0.12166816   -1.5102918 
 4834000    21.176673   -1.6281818   0.10128009   -1.5269017 
 4835000    22.735744   -1.6465731   0.10873654   -1.5378365 
 4836000    21.081173   -1.6159595   0.10082335   -1.5151362 
 4837000     20.97072   -1.6176179    0.1002951   -1.5173228 
 4838000    24.229648   -1.6193681   0.11588133   -1.5034868 
 4839000    28.005466   -1.6121592   0.13393965   -1.4782196 
 4840000    25.348823   -1.6340321   0.12123392   -1.5127982 
 4841000     21.24979    -1.586664   0.10162978   -1.4850343 
 4842000    23.664653   -1.6100152   0.11317917    -1.496836 
 4843000    30.628987   -1.6001645   0.14648697   -1.4536776 
 4844000    32.638376   -1.5939602   0.15609712   -1.4378631 
 4845000    30.517046   -1.5996803    0.1459516   -1.4537287 
 4846000    20.712213   -1.5725607  0.099058755   -1.4735019 
 4847000     27.28125   -1.6039151     0.130476   -1.4734391 
 4848000    32.758443   -1.6329132   0.15667136   -1.4762418 
 4849000    23.374215   -1.5537106   0.11179011   -1.4419205 
 4850000    36.812908   -1.5611012   0.17606235   -1.3850388 
 4851000    29.016852   -1.5904925   0.13877673   -1.4517158 
 4852000    31.990417   -1.6042329   0.15299818   -1.4512347 
 4853000    25.132814   -1.5992126   0.12020083   -1.4790117 
 4854000    34.871097   -1.5623247   0.16677539   -1.3955493 
 4855000     32.47461   -1.6008094   0.15531389   -1.4454955 
 4856000    32.365734   -1.5838945   0.15479318   -1.4291013 
 4857000    24.866121   -1.5945371   0.11892534   -1.4756118 
 4858000    32.275063   -1.5765612   0.15435954   -1.4222016 
 4859000    31.099116   -1.4898992   0.14873542   -1.3411638 
 4860000    33.523445   -1.5979218   0.16033008   -1.4375917 
 4861000    29.943862   -1.5610669   0.14321027   -1.4178566 
 4862000    29.615772   -1.5284187   0.14164114   -1.3867776 
 4863000    31.330683   -1.5738931   0.14984292   -1.4240501 
 4864000    25.937622   -1.5668351   0.12404993   -1.4427852 
 4865000    42.540394   -1.5652169   0.20345477   -1.3617622 
 4866000    29.074766   -1.5803142   0.13905371   -1.4412605 
 4867000     35.93117   -1.5497445   0.17184532   -1.3778991 
 4868000     27.97625   -1.5331497   0.13379992   -1.3993498 
 4869000    32.885555   -1.5527846   0.15727929   -1.3955054 
 4870000    27.423077   -1.5956189    0.1311543   -1.4644646 
 4871000    32.340426   -1.5755264   0.15467214   -1.4208543 
 4872000    20.467156   -1.5830154  0.097886741   -1.4851287 
 4873000    24.209943   -1.5845947   0.11578709   -1.4688076 
 4874000    24.501618   -1.5597859   0.11718206   -1.4426038 
 4875000    22.990117   -1.5923274   0.10995312   -1.4823743 
 4876000    25.360026   -1.5570963    0.1212875   -1.4358088 
 4877000    31.900135   -1.6088827    0.1525664   -1.4563163 
 4878000    23.891064   -1.5793074   0.11426201   -1.4650454 
 4879000    35.430114   -1.5680579   0.16944896   -1.3986089 
 4880000    39.409073   -1.6013012   0.18847883   -1.4128223 
 4881000    24.833388   -1.5970801   0.11876879   -1.4783113 
 4882000     26.21587   -1.5832677   0.12538068    -1.457887 
 4883000    21.600037   -1.5984203   0.10330489   -1.4951154 
 4884000    36.664144   -1.5946916   0.17535087   -1.4193407 
 4885000     31.82059   -1.6275581   0.15218596   -1.4753722 
 4886000    24.385224   -1.6156793   0.11662539   -1.4990539 
 4887000    26.553078   -1.6099544   0.12699343    -1.482961 
 4888000    28.483819   -1.6113806   0.13622743   -1.4751532 
 4889000    27.789321   -1.6034123   0.13290591   -1.4705064 
 4890000    19.872936   -1.5793695   0.09504481   -1.4843247 
 4891000     22.47529   -1.6224863   0.10749089   -1.5149954 
 4892000    23.786489   -1.6102124   0.11376187   -1.4964505 
 4893000    30.825309   -1.5978233   0.14742591   -1.4503974 
 4894000    20.534039   -1.6000329  0.098206615   -1.5018263 
 4895000    25.903898   -1.6157364   0.12388864   -1.4918478 
 4896000    29.134779     -1.58135   0.13934073   -1.4420093 
 4897000    31.222154   -1.6277637   0.14932387   -1.4784398 
 4898000    27.049123   -1.5799425   0.12936582   -1.4505767 
 4899000    26.370664   -1.6020722     0.126121   -1.4759512 
 4900000    26.320664    -1.605837   0.12588188   -1.4799552 
 4901000    27.190633   -1.5849133   0.13004261   -1.4548707 
 4902000    30.290176   -1.6254264   0.14486656   -1.4805599 
 4903000    24.942578   -1.6182271   0.11929101   -1.4989361 
 4904000    29.136963   -1.5769434   0.13935118   -1.4375922 
 4905000     23.23355   -1.6093573   0.11111737   -1.4982399 
 4906000    24.173819   -1.6057043   0.11561432   -1.4900899 
 4907000    27.256429    -1.588439   0.13035729   -1.4580817 
 4908000    27.732334   -1.5867336   0.13263336   -1.4541002 
 4909000    22.785361   -1.6234334   0.10897384   -1.5144595 
 4910000    24.905864   -1.5988303   0.11911542   -1.4797148 
 4911000    36.392557   -1.5413169   0.17405197    -1.367265 
 4912000     35.28277   -1.5106687   0.16874427   -1.3419244 
 4913000    38.507284   -1.5539094   0.18416591   -1.3697434 
 4914000    31.872519   -1.6118847   0.15243432   -1.4594504 
 4915000    29.976858   -1.5919165   0.14336808   -1.4485484 
 4916000    30.333447   -1.5992835   0.14507351   -1.4542099 
 4917000    28.996328   -1.6090099   0.13867857   -1.4703313 
 4918000      27.6296   -1.6084353   0.13214202   -1.4762933 
 4919000    26.958359   -1.5862939   0.12893173   -1.4573622 
 4920000    20.622841   -1.6055384  0.098631325   -1.5069071 
 4921000    16.967645   -1.6277862   0.08114989   -1.5466363 
 4922000    20.401465   -1.6172008  0.097572564   -1.5196283 
 4923000    23.727706   -1.5820594   0.11348073   -1.4685787 
 4924000     29.78165   -1.5170461   0.14243448   -1.3746116 
 4925000    36.816544   -1.5251392   0.17607974   -1.3490594 
 4926000     38.17304    -1.542564   0.18256735   -1.3599967 
 4927000    29.898651   -1.5889224   0.14299405   -1.4459283 
 4928000    23.403399   -1.6145394   0.11192969   -1.5026097 
 4929000    27.430343   -1.5960057   0.13118906   -1.4648167 
 4930000    34.228456   -1.6126973   0.16370188   -1.4489954 
 4931000    26.923999    -1.589126    0.1287674   -1.4603586 
 4932000    24.628317   -1.5808522   0.11778801   -1.4630642 
 4933000    25.385702   -1.5803772    0.1214103   -1.4589669 
 4934000    26.504451   -1.5793389   0.12676086   -1.4525781 
 4935000    20.255653   -1.6292342  0.096875199    -1.532359 
 4936000    21.701821   -1.6352719   0.10379168   -1.5314802 
 4937000    24.001072   -1.6223834   0.11478813   -1.5075953 
 4938000     24.02459   -1.5975694   0.11490062   -1.4826688 
 4939000    18.388977   -1.6279009  0.087947587   -1.5399533 
 4940000    25.577632   -1.6351125   0.12232823   -1.5127843 
 4941000    19.477898   -1.6359044  0.093155489   -1.5427489 
 4942000    22.342658   -1.6349749   0.10685656   -1.5281183 
 4943000    15.713784   -1.6292253  0.075153143   -1.5540722 
 4944000    21.103308   -1.6552138   0.10092922   -1.5542846 
 4945000    17.809623   -1.6217229  0.085176754   -1.5365462 
 4946000    17.598954   -1.6358157  0.084169203   -1.5516465 
 4947000    25.547693   -1.5765399   0.12218505   -1.4543549 
 4948000    26.229231   -1.5793316   0.12544459    -1.453887 
 4949000    25.668681   -1.5938014   0.12276368   -1.4710377 
 4950000      22.1788    -1.608671   0.10607289   -1.5025981 
 4951000    26.341728   -1.6066866   0.12598262    -1.480704 
 4952000    25.018296   -1.5993946   0.11965314   -1.4797414 
 4953000    21.741799   -1.5834848   0.10398288   -1.4795019 
 4954000    24.745368   -1.5644308   0.11834783    -1.446083 
 4955000    33.565459   -1.6224023   0.16053102   -1.4618713 
 4956000    29.187495   -1.5649237   0.13959286   -1.4253309 
 4957000    28.876217   -1.5937529   0.13810413   -1.4556488 
 4958000    26.087148   -1.6372328   0.12476506   -1.5124677 
 4959000    28.793823   -1.5834472   0.13771007   -1.4457371 
 4960000    27.018158   -1.6069853   0.12921773   -1.4777676 
 4961000    30.117936   -1.6057528   0.14404281   -1.4617099 
 4962000     28.28895   -1.5847828   0.13529545   -1.4494874 
 4963000    26.809949   -1.5713115   0.12822194   -1.4430896 
 4964000    26.427558   -1.6152117   0.12639311   -1.4888186 
 4965000    27.589007   -1.5855933   0.13194789   -1.4536454 
 4966000    18.409734   -1.6252994  0.088046862   -1.5372526 
 4967000    23.996027   -1.6302252   0.11476401   -1.5154612 
 4968000    26.154567   -1.5848646   0.12508749   -1.4597771 
 4969000    22.308735   -1.6095557   0.10669432   -1.5028613 
 4970000    22.110537   -1.6152159   0.10574642   -1.5094695 
 4971000    28.193037   -1.5775596   0.13483673   -1.4427229 
 4972000    34.102477   -1.5382656   0.16309937   -1.3751662 
 4973000    33.128841   -1.5792036   0.15844283   -1.4207608 
 4974000    31.756534   -1.5583621   0.15187961   -1.4064825 
 4975000    34.061061    -1.548404    0.1629013   -1.3855027 
 4976000    31.825251   -1.5298622   0.15220825   -1.3776539 
 4977000    24.480888   -1.5637755   0.11708291   -1.4466925 
 4978000    36.571814   -1.5280451   0.17490928   -1.3531358 
 4979000    28.413525   -1.5631763   0.13589124   -1.4272851 
 4980000    30.607681   -1.5735416   0.14638507   -1.4271565 
 4981000    25.123912   -1.5942283   0.12015826     -1.47407 
 4982000    21.721499   -1.5766965   0.10388579   -1.4728108 
 4983000    25.545326   -1.6023942   0.12217373   -1.4802205 
 4984000    25.767776   -1.6224471   0.12323762   -1.4992095 
 4985000    21.272058   -1.6332248   0.10173628   -1.5314885 
 4986000    19.663165   -1.5794514  0.094041552   -1.4854099 
 4987000    28.028038   -1.5977552   0.13404761   -1.4637076 
 4988000    23.804112    -1.486868   0.11384615   -1.3730219 
 4989000     28.78376   -1.5780945   0.13766194   -1.4404326 
 4990000    26.434181   -1.6279975   0.12642479   -1.5015728 
 4991000    23.988352   -1.6284664    0.1147273   -1.5137391 
 4992000    29.018305   -1.6168987   0.13878368    -1.478115 
 4993000    25.430619   -1.5769162   0.12162513    -1.455291 
 4994000    24.809407   -1.5752433    0.1186541   -1.4565892 
 4995000    23.804856   -1.5708538   0.11384971   -1.4570041 
 4996000    28.073134   -1.5539439   0.13426328   -1.4196806 
 4997000    32.341828   -1.5339672   0.15467885   -1.3792883 
 4998000    28.485847   -1.5497352   0.13623713   -1.4134981 
 4999000     25.94491   -1.6054382   0.12408478   -1.4813535 
 5000000    35.023964   -1.5786515    0.1675065    -1.411145 
Loop time of 1276.16 on 1 procs for 5000000 steps with 38 atoms

Performance: 338.516 ns/day, 0.071 hours/ns, 3918.010 timesteps/s
97.6% CPU use with 1 MPI tasks x no OpenMP threads

MPI task timing breakdown:
Section |  min time  |  avg time  |  max time  |%varavg| %total
---------------------------------------------------------------
Pair    | 1196.6     | 1196.6     | 1196.6     |   0.0 | 93.76
Neigh   | 0.0023398  | 0.0023398  | 0.0023398  |   0.0 |  0.00
Comm    | 1.161      | 1.161      | 1.161      |   0.0 |  0.09
Output  | 0.22785    | 0.22785    | 0.22785    |   0.0 |  0.02
Modify  | 17.234     | 17.234     | 17.234     |   0.0 |  1.35
Other   |            | 60.98      |            |       |  4.78

Nlocal:        38.0000 ave          38 max          38 min
Histogram: 1 0 0 0 0 0 0 0 0 0
Nghost:        0.00000 ave           0 max           0 min
Histogram: 1 0 0 0 0 0 0 0 0 0
Neighs:        0.00000 ave           0 max           0 min
Histogram: 1 0 0 0 0 0 0 0 0 0

Total # of neighbors = 0
Ave neighs/atom = 0.0000000
Neighbor list builds = 9630
Dangerous builds = 0
neighbor            0.3        bin


Total wall time: 0:21:16
