LAMMPS (29 Oct 2020)
Processor partition = 4
package gpu 1
# Initialization
units            metal
dimension        3
boundary         p p p
atom_style       atomic

#
#  region for the wall
#

region rs sphere 0 0 0 12.66

read_data        input.dat
Reading data file ...
  orthogonal box = (-50.000000 -50.000000 -50.000000) to (50.000000 50.000000 50.000000)
  1 by 1 by 1 MPI processor grid
  reading atoms ...
  38 atoms
  read_data CPU = 0.010 seconds

mass 1 39.948

pair_style lj/cut 8.5
pair_coeff 1 1 0.01042 3.405  8.5
variable i equal part

variable t world  2.00    2.60    3.64    5    6.63    9.12   12.07   16   21.97   26.83   32.76   40.00
velocity        all        create        $t        293288
velocity        all        create        6.63        293288
velocity all zero linear
velocity all zero angular
fix        1        all        nvt        temp        $t        $t        0.1
fix        1        all        nvt        temp        6.63        $t        0.1
fix        1        all        nvt        temp        6.63        6.63        0.1
fix  2 all wall/region rs harmonic 2.0 0.0 0.4


thermo         1000
thermo_style        custom        step  temp     pe ke etotal
thermo_modify       line        one

restart 5000000 restart.*
dump         2 all xyz 10000 structure_$i.xyz
dump         2 all xyz 10000 structure_4.xyz
dump_modify  2 element "Ar" sort id

temper 5000000 1000 $t 1 3678 3490
temper 5000000 1000 6.63 1 3678 3490
Per MPI rank memory allocation (min/avg/max) = 3.436 | 3.436 | 3.436 Mbytes
Step Temp PotEng KinEng TotEng 
       0    6.5781351   -1.7950808  0.031460756     -1.76362 
    1000    6.6924411   -1.7618517  0.032007439   -1.7298443 
    2000     6.032718   -1.7545489   0.02885223   -1.7256967 
    3000    6.3758534   -1.7509936  0.030493318   -1.7205003 
    4000    7.3731267    -1.775497  0.035262903   -1.7402341 
    5000    6.7671392   -1.7588441  0.032364692   -1.7264794 
    6000    6.2793922   -1.7550827   0.03003198   -1.7250507 
    7000     5.345341   -1.7556654  0.025564764   -1.7301006 
    8000    10.461218   -1.7471438  0.050032087   -1.6971117 
    9000    9.5712929   -1.7411177  0.045775908   -1.6953417 
   10000      8.95369   -1.7623467  0.042822145   -1.7195246 
   11000    9.4489804   -1.7562359  0.045190933    -1.711045 
   12000      7.51675   -1.7475239  0.035949799   -1.7115741 
   13000    10.578264   -1.7545121  0.050591875   -1.7039202 
   14000     12.70183   -1.7607488  0.060748095   -1.7000007 
   15000    7.4815985   -1.7635989  0.035781683   -1.7278172 
   16000    6.8052506    -1.769567  0.032546964     -1.73702 
   17000    6.6281171   -1.7598885  0.031699801   -1.7281887 
   18000    7.1961249   -1.7635789   0.03441637   -1.7291625 
   19000    7.0418875   -1.7674188   0.03367871   -1.7337401 
   20000     7.490878   -1.7624913  0.035826063   -1.7266652 
   21000    6.3551995   -1.7619112  0.030394538   -1.7315167 
   22000    6.1875803   -1.7602877  0.029592879   -1.7306948 
   23000    7.4174888   -1.7647549   0.03547507   -1.7292798 
   24000    6.4795256   -1.7649238  0.030989144   -1.7339346 
   25000    6.2940945   -1.7548667  0.030102296   -1.7247644 
   26000    7.7243777   -1.7619512  0.036942804   -1.7250084 
   27000    6.3543096   -1.7629389  0.030390282   -1.7325486 
   28000    6.8254269   -1.7661837   0.03264346   -1.7335402 
   29000    7.6368008   -1.7635332  0.036523957   -1.7270093 
   30000    7.5649818   -1.7613681  0.036180474   -1.7251876 
   31000    7.3307193   -1.7589855  0.035060084   -1.7239254 
   32000    7.5004717   -1.7593835  0.035871946   -1.7235115 
   33000     6.531926    -1.761144  0.031239755   -1.7299042 
   34000     7.133933    -1.758536  0.034118929    -1.724417 
   35000    7.0557179   -1.7608335  0.033744855   -1.7270886 
   36000    6.9408589   -1.7708291  0.033195528   -1.7376336 
   37000     6.676771   -1.7655124  0.031932495   -1.7335799 
   38000    6.3733743   -1.7571592  0.030481461   -1.7266777 
   39000    5.7313072   -1.7610647  0.027410695    -1.733654 
   40000    5.4890418   -1.7693451   0.02625203   -1.7430931 
   41000    5.7554234   -1.7574104  0.027526034   -1.7298844 
   42000    8.0620213   -1.7546159  0.038557628   -1.7160583 
   43000     6.011031   -1.7584372  0.028748509   -1.7296887 
   44000    7.1204622   -1.7664901  0.034054503   -1.7324356 
   45000    8.1692955   -1.7673545   0.03907068   -1.7282839 
   46000    6.3746934   -1.7600559   0.03048777   -1.7295681 
   47000    6.3592255   -1.7613631  0.030413793   -1.7309493 
   48000    5.0066298   -1.7639906  0.023944835   -1.7400458 
   49000    7.0039202   -1.7750419  0.033497126   -1.7415447 
   50000     5.972815    -1.760937  0.028565737   -1.7323713 
   51000     6.228844   -1.7550354  0.029790227   -1.7252452 
   52000    6.3553921   -1.7633525  0.030395459    -1.732957 
   53000    6.1637148   -1.7671524  0.029478739   -1.7376736 
   54000    7.7892294   -1.7587799  0.037252966   -1.7215269 
   55000    7.2014922   -1.7584202  0.034442039   -1.7239782 
   56000    7.0590948    -1.760919  0.033761006    -1.727158 
   57000    6.8372198   -1.7636685  0.032699861   -1.7309686 
   58000    9.3158276   -1.7568955  0.044554113   -1.7123414 
   59000    6.7625425   -1.7656012  0.032342707   -1.7332585 
   60000    5.6718032   -1.7641424   0.02712611   -1.7370163 
   61000    7.4571039   -1.7577347  0.035664534   -1.7220702 
   62000    5.9071734   -1.7552721  0.028251798   -1.7270203 
   63000    8.1218619   -1.7688278  0.038843823    -1.729984 
   64000    5.1198288   -1.7719529  0.024486223   -1.7474667 
   65000    4.7467632   -1.7663566   0.02270199   -1.7436546 
   66000    5.1095696   -1.7664207  0.024437157   -1.7419835 
   67000    7.9173576   -1.7615666  0.037865755   -1.7237009 
   68000    7.8380686   -1.7623089  0.037486546   -1.7248223 
   69000    7.3427103   -1.7586943  0.035117433   -1.7235769 
   70000    5.6760694   -1.7653768  0.027146514   -1.7382303 
   71000    4.0384278   -1.7704411  0.019314287   -1.7511268 
   72000    5.3822948   -1.7722975    0.0257415    -1.746556 
   73000    5.7994496   -1.7701198  0.027736595   -1.7423832 
   74000    4.3945277   -1.7776344  0.021017379    -1.756617 
   75000    4.5610063   -1.7738115  0.021813584   -1.7519979 
   76000    4.5727214   -1.7720794  0.021869613   -1.7502098 
   77000     5.059908   -1.7720859  0.024199644   -1.7478862 
   78000    6.0676634    -1.773845  0.029019361   -1.7448256 
   79000    4.5148422   -1.7718917  0.021592799   -1.7502989 
   80000    5.8358662   -1.7703187  0.027910762    -1.742408 
   81000    5.4444617   -1.7664382  0.026038821   -1.7403994 
   82000    4.4289598   -1.7718213  0.021182055   -1.7506392 
   83000    4.7429838   -1.7763663  0.022683914   -1.7536824 
   84000    3.3098055   -1.7776501   0.01582956   -1.7618206 
   85000    3.2238746   -1.7830777  0.015418585   -1.7676591 
   86000    3.6882252   -1.7824917  0.017639399   -1.7648523 
   87000    3.5663213   -1.7769745  0.017056379   -1.7599181 
   88000    4.0145191   -1.7774343  0.019199941   -1.7582344 
   89000    3.5418858   -1.7821357  0.016939513   -1.7651962 
   90000    4.1261731   -1.7833253   0.01973394   -1.7635913 
   91000    3.7639167   -1.7822147  0.018001404   -1.7642133 
   92000    2.7671593   -1.7812783  0.013234286    -1.768044 
   93000    3.9351762   -1.7790731  0.018820474   -1.7602527 
   94000    3.5797768    -1.779172  0.017120732   -1.7620513 
   95000    3.3587981   -1.7806965  0.016063873   -1.7646326 
   96000    3.7034831   -1.7791643  0.017712372    -1.761452 
   97000    3.2296509   -1.7746942   0.01544621    -1.759248 
   98000    2.9010748   -1.7772402  0.013874754   -1.7633655 
   99000    5.8619822   -1.7731733  0.028035665   -1.7451376 
  100000    4.2477868   -1.7742068  0.020315573   -1.7538912 
  101000    4.1463399     -1.77141   0.01983039   -1.7515796 
  102000    4.3209057   -1.7733406  0.020665273   -1.7526753 
  103000    4.1117966   -1.7737437  0.019665183   -1.7540785 
  104000    4.4531885    -1.775339  0.021297932   -1.7540411 
  105000    4.9483304   -1.7672065  0.023666011   -1.7435405 
  106000    4.8997198   -1.7703791  0.023433524   -1.7469456 
  107000     4.853233   -1.7759219  0.023211195   -1.7527107 
  108000    4.4095876   -1.7724428  0.021089405   -1.7513534 
  109000    4.1488526   -1.7686209  0.019842408   -1.7487785 
  110000    6.7720174   -1.7598963  0.032388022   -1.7275083 
  111000    6.3011851   -1.7570734  0.030136208   -1.7269372 
  112000    5.6286436   -1.7674362  0.026919694   -1.7405165 
  113000    8.5735382   -1.7628494  0.041004021   -1.7218454 
  114000    3.9726382   -1.7704905   0.01899964   -1.7514908 
  115000    4.3815327   -1.7752049  0.020955229   -1.7542497 
  116000    6.0263124   -1.7733474  0.028821594   -1.7445258 
  117000    6.0970545   -1.7715426  0.029159927   -1.7423827 
  118000    5.6659643   -1.7729213  0.027098185   -1.7458231 
  119000    6.9026486   -1.7676547  0.033012782    -1.734642 
  120000    7.2376446   -1.7650457  0.034614943   -1.7304308 
  121000    5.4758623   -1.7606439  0.026188998   -1.7344549 
  122000    7.7165555   -1.7623906  0.036905394   -1.7254852 
  123000    6.8720298   -1.7579658  0.032866344   -1.7250995 
  124000    6.5636042   -1.7534758   0.03139126   -1.7220845 
  125000    6.3903892   -1.7593348  0.030562837    -1.728772 
  126000    7.5019041   -1.7621218  0.035878797    -1.726243 
  127000    6.9730228   -1.7607195  0.033349356   -1.7273702 
  128000    8.0658841   -1.7575827  0.038576102   -1.7190066 
  129000    6.4165228   -1.7624822  0.030687825   -1.7317944 
  130000    9.1041501    -1.767074  0.043541739   -1.7235323 
  131000    6.7969742   -1.7622392  0.032507381   -1.7297318 
  132000    7.5300518   -1.7630095  0.036013417   -1.7269961 
  133000    4.4956607   -1.7510805  0.021501061   -1.7295794 
  134000    8.2160935   -1.7675253  0.039294497   -1.7282308 
  135000    6.2225458   -1.7640579  0.029760105   -1.7342978 
  136000    4.6721906   -1.7543352  0.022345337   -1.7319899 
  137000      6.30738   -1.7577316  0.030165836   -1.7275658 
  138000    7.4530342   -1.7656519   0.03564507   -1.7300069 
  139000    6.8189479    -1.763917  0.032612473   -1.7313046 
  140000     6.785239   -1.7620103  0.032451256    -1.729559 
  141000     5.134016   -1.7587534  0.024554075   -1.7341993 
  142000     7.291801   -1.7707461  0.034873952   -1.7358721 
  143000    5.3906653   -1.7728265  0.025781533   -1.7470449 
  144000    5.8775544   -1.7791169  0.028110141   -1.7510068 
  145000    4.9101486   -1.7751284  0.023483401    -1.751645 
  146000    4.0968458   -1.7683449  0.019593679   -1.7487513 
  147000    4.8604023   -1.7720718  0.023245483   -1.7488263 
  148000    5.5128115   -1.7737338  0.026365712   -1.7473681 
  149000    6.5386305   -1.7739501   0.03127182   -1.7426783 
  150000    4.5521667   -1.7680581  0.021771308   -1.7462868 
  151000    8.0038604   -1.7587091  0.038279466   -1.7204296 
  152000    6.2588068   -1.7551137  0.029933528   -1.7251801 
  153000    6.7116976   -1.7619714  0.032099535   -1.7298718 
  154000    6.3652773    -1.764291  0.030442737   -1.7338482 
  155000    6.8667013   -1.7652015   0.03284086   -1.7323606 
  156000     6.101422   -1.7531717  0.029180815   -1.7239909 
  157000    6.3951207   -1.7651305  0.030585466   -1.7345451 
  158000     6.130558   -1.7616382  0.029320162   -1.7323181 
  159000    7.4181257   -1.7588316  0.035478116   -1.7233535 
  160000    7.3316173   -1.7588956  0.035064379   -1.7238312 
  161000    7.4571299   -1.7569016  0.035664659   -1.7212369 
  162000    5.4457469   -1.7654302  0.026044967   -1.7393852 
  163000    6.9497565   -1.7630957  0.033238082   -1.7298576 
  164000    4.9100199   -1.7691662  0.023482786   -1.7456835 
  165000    5.2124107   -1.7773968  0.024929007   -1.7524678 
  166000    2.9629277   -1.7797535  0.014170573   -1.7655829 
  167000    2.6993293   -1.7835002  0.012909881   -1.7705903 
  168000    3.4464896   -1.7818092  0.016483269   -1.7653259 
  169000    3.7557213   -1.7810018  0.017962208   -1.7630396 
  170000    3.7437528   -1.7745481  0.017904967   -1.7566431 
  171000    3.9341986   -1.7715408  0.018815798    -1.752725 
  172000    6.1176526   -1.7762716   0.02925844   -1.7470132 
  173000    3.9492566   -1.7686921  0.018887815   -1.7498043 
  174000    4.7939858   -1.7640234  0.022927838   -1.7410956 
  175000    7.5060178   -1.7625165  0.035898471    -1.726618 
  176000    7.4546089   -1.7618632  0.035652602   -1.7262106 
  177000    4.6313535   -1.7590953  0.022150029   -1.7369453 
  178000    9.2660868   -1.7553594  0.044316222   -1.7110432 
  179000    6.6804641   -1.7610471  0.031950157   -1.7290969 
  180000    6.5424185   -1.7699822  0.031289937   -1.7386923 
  181000    5.8382126   -1.7611481  0.027921984   -1.7332262 
  182000    6.1349257   -1.7536305  0.029341051   -1.7242894 
  183000    6.6787618   -1.7596509  0.031942015   -1.7277089 
  184000    5.5397605   -1.7566404  0.026494599   -1.7301458 
  185000    6.0007541   -1.7613559  0.028699359   -1.7326566 
  186000    6.7890097   -1.7606998   0.03246929   -1.7282305 
  187000    7.2098208   -1.7599615  0.034481872   -1.7254796 
  188000    7.2208624   -1.7557792   0.03453468   -1.7212445 
  189000    7.0831219   -1.7612665  0.033875919   -1.7273906 
  190000    7.7553219   -1.7584465  0.037090799   -1.7213557 
  191000    7.6251523   -1.7585015  0.036468247   -1.7220332 
  192000    7.2433735   -1.7591404  0.034642342   -1.7244981 
  193000    8.7603773   -1.7583568  0.041897603   -1.7164592 
  194000    6.5098658   -1.7641905  0.031134249   -1.7330563 
  195000    8.5838145    -1.767102  0.041053169   -1.7260489 
  196000    8.4435139   -1.7599787  0.040382164   -1.7195966 
  197000    6.5452334   -1.7642713  0.031303399   -1.7329679 
  198000     7.221094   -1.7651635  0.034535788   -1.7306277 
  199000    7.8593066   -1.7617052  0.037588119   -1.7241171 
  200000    6.7857454   -1.7582625  0.032453678   -1.7258088 
  201000    6.3027529   -1.7702237  0.030143706     -1.74008 
  202000    7.0731962   -1.7650685  0.033828447     -1.73124 
  203000    4.8269673   -1.7552443  0.023085576   -1.7321587 
  204000    5.9296084   -1.7552824  0.028359095   -1.7269233 
  205000    5.6199307   -1.7628781  0.026878023       -1.736 
  206000     4.878352   -1.7737625   0.02333133   -1.7504311 
  207000     4.250451   -1.7725788  0.020328315   -1.7522504 
  208000    6.0223448   -1.7623011  0.028802619   -1.7334985 
  209000    5.1846481   -1.7653988  0.024796229   -1.7406026 
  210000    4.6955697   -1.7693583  0.022457151   -1.7469012 
  211000    4.7753437   -1.7712264   0.02283868   -1.7483877 
  212000    6.1958589   -1.7645705  0.029632472   -1.7349381 
  213000    4.1971356   -1.7732211  0.020073327   -1.7531478 
  214000    5.4990604   -1.7700062  0.026299946   -1.7437063 
  215000    4.2519592   -1.7714403  0.020335528   -1.7511048 
  216000    5.0670784   -1.7735155  0.024233938   -1.7492816 
  217000    4.3037476   -1.7806986  0.020583213   -1.7601154 
  218000    4.0757162   -1.7785294  0.019492623   -1.7590367 
  219000    3.1238191   -1.7787923  0.014940057   -1.7638523 
  220000    3.5129644   -1.7798399  0.016801192   -1.7630387 
  221000    3.4606241   -1.7783279  0.016550869    -1.761777 
  222000     3.312499   -1.7716531  0.015842442   -1.7558107 
  223000     3.475294   -1.7820692  0.016621029   -1.7654482 
  224000    3.6332569   -1.7784961  0.017376507   -1.7611196 
  225000    3.5984638   -1.7753785  0.017210104   -1.7581684 
  226000    3.5426812   -1.7747419  0.016943317   -1.7577986 
  227000     3.606158    -1.777664  0.017246903   -1.7604171 
  228000    3.8079797   -1.7776472   0.01821214   -1.7594351 
  229000     3.727338   -1.7833989  0.017826461   -1.7655724 
  230000    3.2824201   -1.7761159  0.015698586   -1.7604173 
  231000    3.7654761   -1.7809707  0.018008862   -1.7629618 
  232000    3.6010247   -1.7800766  0.017222352   -1.7628543 
  233000    3.7341002   -1.7771044  0.017858802   -1.7592456 
  234000    2.9110675    -1.776175  0.013922545   -1.7622524 
  235000    3.4348645    -1.783558   0.01642767   -1.7671303 
  236000    4.4829969   -1.7793509  0.021440495   -1.7579104 
  237000    4.1044926   -1.7769614   0.01963025   -1.7573312 
  238000    4.0263839   -1.7754131  0.019256686   -1.7561564 
  239000    4.9530096   -1.7760377   0.02368839   -1.7523493 
  240000    4.0894428   -1.7789158  0.019558273   -1.7593575 
  241000    5.5236594   -1.7723194  0.026417594   -1.7459018 
  242000    5.7641884   -1.7657097  0.027567954   -1.7381418 
  243000    5.7452132   -1.7697567  0.027477202   -1.7422795 
  244000     5.302281   -1.7765697  0.025358824   -1.7512109 
  245000    4.9970771    -1.771392  0.023899148   -1.7474928 
  246000    4.4750175   -1.7690686  0.021402332   -1.7476663 
  247000    3.4181388   -1.7750267  0.016347678    -1.758679 
  248000     4.972033    -1.770242  0.023779371   -1.7464626 
  249000    4.6210089    -1.777239  0.022100554   -1.7551384 
  250000     5.243741   -1.7680711  0.025078849   -1.7429922 
  251000    4.9944762   -1.7625624  0.023886709   -1.7386757 
  252000    5.5421618   -1.7615093  0.026506084   -1.7350033 
  253000    7.0007392   -1.7628301  0.033481913   -1.7293482 
  254000    5.4031237   -1.7699396  0.025841117   -1.7440985 
  255000    6.3466347   -1.7637873  0.030353576   -1.7334337 
  256000    5.8183815   -1.7660905  0.027827139   -1.7382634 
  257000     5.670314    -1.770661  0.027118987    -1.743542 
  258000    4.8227862     -1.77093   0.02306558   -1.7478644 
  259000    5.1167141   -1.7757909  0.024471326   -1.7513196 
  260000     5.136079   -1.7680368  0.024563942   -1.7434729 
  261000    5.2950338   -1.7645489  0.025324163   -1.7392247 
  262000    4.5566295    -1.770833  0.021792652   -1.7490404 
  263000    5.1940453   -1.7732853  0.024841173   -1.7484442 
  264000    5.0826907   -1.7744624  0.024308606   -1.7501538 
  265000    3.6308796   -1.7681282  0.017365137    -1.750763 
  266000     5.178877    -1.771559  0.024768628   -1.7467904 
  267000    5.3485359   -1.7739485  0.025580043   -1.7483685 
  268000    5.6015499   -1.7743843  0.026790115   -1.7475942 
  269000    5.4692482   -1.7734251  0.026157365   -1.7472678 
  270000    5.5564049    -1.762577  0.026574203   -1.7360028 
  271000    3.9415525   -1.7729805  0.018850969   -1.7541296 
  272000    5.1556371    -1.772145  0.024657481   -1.7474875 
  273000    4.7808225   -1.7711589  0.022864883   -1.7482941 
  274000    4.6073909   -1.7712742  0.022035425   -1.7492388 
  275000    4.7307614   -1.7697024   0.02262546   -1.7470769 
  276000    4.7112191   -1.7717759  0.022531996   -1.7492439 
  277000     5.468656   -1.7767722  0.026154533   -1.7506177 
  278000    4.8132471   -1.7734052  0.023019958   -1.7503852 
  279000    4.7525788   -1.7776709  0.022729804   -1.7549411 
  280000    5.0739331   -1.7656224  0.024266721   -1.7413556 
  281000    4.1676568   -1.7717862  0.019932341   -1.7518538 
  282000      4.68313   -1.7723892  0.022397656   -1.7499916 
  283000    4.2485925   -1.7769697  0.020319426   -1.7566503 
  284000    4.1651903   -1.7665996  0.019920545   -1.7466791 
  285000    5.5482051   -1.7703232  0.026534987   -1.7437883 
  286000    4.3916927   -1.7679198  0.021003821   -1.7469159 
  287000    6.2111123   -1.7623201  0.029705423   -1.7326147 
  288000    6.3920453   -1.7577469  0.030570758   -1.7271762 
  289000    6.1564451   -1.7620655   0.02944397   -1.7326215 
  290000    6.2361557   -1.7645347  0.029825197   -1.7347095 
  291000    6.9462635   -1.7640704  0.033221376    -1.730849 
  292000    6.7673418   -1.7586415   0.03236566   -1.7262758 
  293000    6.2993536   -1.7671341  0.030127448   -1.7370066 
  294000    4.4406237   -1.7712762   0.02123784   -1.7500384 
  295000    4.5709029   -1.7721981  0.021860916   -1.7503372 
  296000    4.7450198   -1.7659704  0.022693652   -1.7432767 
  297000    5.1205519   -1.7689415  0.024489682   -1.7444518 
  298000    4.0997787   -1.7668456  0.019607706   -1.7472379 
  299000     4.773886   -1.7775215  0.022831708   -1.7546898 
  300000    5.5357447   -1.7697496  0.026475393   -1.7432742 
  301000    4.9461964   -1.7736643  0.023655804   -1.7500085 
  302000    4.1928505   -1.7689894  0.020052833   -1.7489366 
  303000    5.3891348   -1.7699814  0.025774213   -1.7442072 
  304000    5.8096775   -1.7757064  0.027785511   -1.7479209 
  305000    4.5636591   -1.7701754  0.021826272   -1.7483491 
  306000    5.5094173   -1.7687784  0.026349479   -1.7424289 
  307000     4.031982   -1.7680346  0.019283459   -1.7487511 
  308000    4.8343333   -1.7684443  0.023120805   -1.7453235 
  309000    4.9676187   -1.7780256  0.023758259   -1.7542674 
  310000    5.5695019   -1.7742885  0.026636841   -1.7476516 
  311000    5.1571482   -1.7716198  0.024664708   -1.7469551 
  312000    5.2785257   -1.7662728  0.025245211   -1.7410276 
  313000    5.0709508   -1.7675858  0.024252458   -1.7433334 
  314000    6.5443979   -1.7731139  0.031299403   -1.7418145 
  315000     6.059125   -1.7675348  0.028978525   -1.7385563 
  316000    4.7147716    -1.767361  0.022548986    -1.744812 
  317000    6.2003752   -1.7593233  0.029654072   -1.7296692 
  318000    8.9354741   -1.7418974  0.042735025   -1.6991624 
  319000    6.6237638   -1.7567284  0.031678981   -1.7250494 
  320000    6.5727232   -1.7637015  0.031434872   -1.7322666 
  321000    5.4784157   -1.7679654   0.02620121   -1.7417642 
  322000    6.3156338   -1.7548485   0.03020531   -1.7246432 
  323000    7.4538028   -1.7609089  0.035648746   -1.7252601 
  324000    6.0706378   -1.7611888  0.029033587   -1.7321552 
  325000    11.877114   -1.7473884  0.056803785   -1.6905846 
  326000     7.870121   -1.7498461   0.03763984   -1.7122063 
  327000    8.3846413   -1.7449969  0.040100598   -1.7048963 
  328000    10.540792   -1.7492712  0.050412659   -1.6988585 
  329000    9.8284016   -1.7604971  0.047005563   -1.7134916 
  330000     7.845005   -1.7440852   0.03751972   -1.7065655 
  331000    8.4715765    -1.746858  0.040516377   -1.7063416 
  332000    7.0198882    -1.754171  0.033573495   -1.7205975 
  333000    9.3869172   -1.7425523  0.044894108   -1.6976582 
  334000     8.425528   -1.7555918  0.040296144   -1.7152957 
  335000    8.3742779   -1.7426229  0.040051034   -1.7025719 
  336000     10.50954   -1.7501978  0.050263193   -1.6999346 
  337000    10.293737   -1.7512035  0.049231087   -1.7019724 
  338000    5.1814343   -1.7619722  0.024780859   -1.7371914 
  339000    7.8202374   -1.7706713  0.037401266   -1.7332701 
  340000    6.4835211   -1.7638069  0.031008253   -1.7327987 
  341000    3.8955808   -1.7693358  0.018631103   -1.7507047 
  342000    7.9039408   -1.7643421  0.037801588   -1.7265405 
  343000    7.3191155   -1.7614635  0.035004587   -1.7264589 
  344000    6.1514307   -1.7634524  0.029419989   -1.7340325 
  345000    8.4140422   -1.7694184  0.040241212   -1.7291772 
  346000    5.6360911   -1.7705582  0.026955312   -1.7436028 
  347000    4.7015313   -1.7765134  0.022485663   -1.7540277 
  348000    5.2528147   -1.7652875  0.025122245   -1.7401653 
  349000    4.6561247   -1.7661333    0.0222685   -1.7438648 
  350000    5.8103073   -1.7578579  0.027788523   -1.7300694 
  351000    7.9097056   -1.7567433  0.037829159   -1.7189141 
  352000    6.0691798   -1.7624451  0.029026613   -1.7334185 
  353000    6.5327274   -1.7670445  0.031243588   -1.7358009 
  354000      4.36394   -1.7737165   0.02087109   -1.7528454 
  355000    4.3758739   -1.7761676  0.020928165   -1.7552394 
  356000    5.1162315   -1.7664844  0.024469019   -1.7420154 
  357000    6.3638776   -1.7677727  0.030436042   -1.7373367 
  358000    3.7803749   -1.7681432  0.018080117   -1.7500631 
  359000    5.2699723   -1.7763325  0.025204303   -1.7511282 
  360000    5.9253741   -1.7743581  0.028338844   -1.7460192 
  361000    4.9435193   -1.7717256  0.023643001   -1.7480826 
  362000    6.3536229   -1.7607425  0.030386998   -1.7303555 
  363000    6.6786117   -1.7634912  0.031941298   -1.7315499 
  364000    7.3403163   -1.7531051  0.035105983   -1.7179991 
  365000    7.1661355   -1.7708964  0.034272942   -1.7366234 
  366000     5.076636   -1.7712151  0.024279648   -1.7469355 
  367000    5.5192213   -1.7748747  0.026396368   -1.7484784 
  368000    5.0085824   -1.7657966  0.023954173   -1.7418425 
  369000    4.3041959   -1.7732391  0.020585356   -1.7526537 
  370000    4.8324017   -1.7683353  0.023111567   -1.7452237 
  371000     4.566715    -1.768178  0.021840887   -1.7463371 
  372000    6.3396178   -1.7733085  0.030320017   -1.7429885 
  373000    3.3748335   -1.7773958  0.016140564   -1.7612553 
  374000    3.2577982   -1.7742948  0.015580828    -1.758714 
  375000    3.8514168   -1.7794189  0.018419884    -1.760999 
  376000    3.6078651    -1.778485  0.017255067     -1.76123 
  377000     3.523334   -1.7842671  0.016850787   -1.7674163 
  378000    3.8668235   -1.7729215  0.018493568    -1.754428 
  379000     3.271254   -1.7781427  0.015645182   -1.7624975 
  380000    3.6174454   -1.7736336  0.017300886   -1.7563327 
  381000    3.5498131   -1.7804073  0.016977426   -1.7634298 
  382000    3.0335373    -1.776619  0.014508272   -1.7621107 
  383000    4.4905894   -1.7780667  0.021476807   -1.7565899 
  384000    4.2698107   -1.7755895  0.020420905   -1.7551686 
  385000    3.9964725   -1.7794226  0.019113631   -1.7603089 
  386000    4.2318372   -1.7742095  0.020239292   -1.7539702 
  387000     3.341947   -1.7825276   0.01598328   -1.7665443 
  388000    3.6562897   -1.7753737  0.017486664   -1.7578871 
  389000     3.772736   -1.7783678  0.018043583   -1.7603242 
  390000    3.8858945   -1.7799869  0.018584778   -1.7614021 
  391000    3.4964513   -1.7834698  0.016722217   -1.7667476 
  392000    4.2780549   -1.7788636  0.020460334   -1.7584032 
  393000    3.4629036   -1.7819801   0.01656177   -1.7654183 
  394000    4.0362497   -1.7700677   0.01930387   -1.7507638 
  395000    4.5723483   -1.7754545  0.021867829   -1.7535866 
  396000    4.9557911   -1.7666984  0.023701692   -1.7429968 
  397000    5.1785058   -1.7728642  0.024766853   -1.7480974 
  398000    4.8219818     -1.77458  0.023061732   -1.7515183 
  399000    6.7897047   -1.7600465  0.032472614   -1.7275739 
  400000    5.9411954   -1.7617674  0.028414512   -1.7333529 
  401000    7.5505049   -1.7549384  0.036111236   -1.7188272 
  402000    6.2959746   -1.7609739  0.030111288   -1.7308626 
  403000     6.901604   -1.7652066  0.033007786   -1.7321988 
  404000    5.9391612   -1.7590159  0.028404783   -1.7306111 
  405000    5.7143307   -1.7600008  0.027329503   -1.7326713 
  406000    7.0399298   -1.7578225  0.033669347   -1.7241532 
  407000    7.1767022   -1.7599978  0.034323478   -1.7256743 
  408000    6.0392754   -1.7640341  0.028883592   -1.7351505 
  409000    6.6188864   -1.7609391  0.031655654   -1.7292834 
  410000     6.547683   -1.7669221  0.031315115    -1.735607 
  411000    5.2150377   -1.7649555  0.024941571   -1.7400139 
  412000    4.1705986   -1.7726742  0.019946411   -1.7527278 
  413000    5.5022701   -1.7707624  0.026315296   -1.7444471 
  414000    4.6869553   -1.7762955  0.022415951   -1.7538795 
  415000    4.7403278   -1.7689105  0.022671212   -1.7462393 
  416000     7.309993   -1.7638962  0.034960958   -1.7289353 
  417000    7.2939368   -1.7622546  0.034884167   -1.7273704 
  418000    5.3972631   -1.7595455  0.025813087   -1.7337324 
  419000    6.4082961   -1.7631898   0.03064848   -1.7325413 
  420000    6.4882983   -1.7663759    0.0310311   -1.7353448 
  421000    5.5495771   -1.7528949  0.026541548   -1.7263533 
  422000    7.3648087   -1.7584663  0.035223121   -1.7232432 
  423000    6.8899548   -1.7683423  0.032952073   -1.7353903 
  424000    6.0122286   -1.7649571  0.028754237   -1.7362029 
  425000    6.1562976   -1.7561763  0.029443265   -1.7267331 
  426000    10.115244   -1.7344297  0.048377421   -1.6860523 
  427000    10.728926   -1.7229193  0.051312433   -1.6716068 
  428000    13.445693   -1.7362732  0.064305711   -1.6719675 
  429000    12.330365   -1.7217404  0.058971518   -1.6627689 
  430000    10.300145   -1.7372853  0.049261733   -1.6880236 
  431000    10.293842    -1.727571  0.049231591   -1.6783394 
  432000    11.037638   -1.7261342  0.052788886   -1.6733453 
  433000    12.338297   -1.7341884  0.059009452    -1.675179 
  434000     13.60601     -1.73246  0.065072449   -1.6673876 
  435000    15.243139   -1.7281205  0.072902222   -1.6552182 
  436000     9.654422   -1.7301794  0.046173483    -1.684006 
  437000    15.977008   -1.7313113  0.076412041   -1.6548992 
  438000    14.447846    -1.691907  0.069098636   -1.6228084 
  439000    16.689432   -1.7304345    0.0798193   -1.6506152 
  440000    17.215946   -1.7124469  0.082337421   -1.6301094 
  441000    14.665848    -1.693117  0.070141256   -1.6229758 
  442000    15.295627   -1.7136635  0.073153254   -1.6405102 
  443000    14.991141   -1.7264752   0.07169701   -1.6547782 
  444000     16.78895   -1.7141534  0.080295259   -1.6338581 
  445000    15.640156   -1.7145826  0.074801007   -1.6397816 
  446000    15.833985   -1.7122619  0.075728019   -1.6365339 
  447000    13.332558   -1.7032047  0.063764632   -1.6394401 
  448000    15.568528   -1.7132268  0.074458437   -1.6387684 
  449000    12.280172   -1.7140256  0.058731462   -1.6552941 
  450000    20.910626   -1.6927316   0.10000769   -1.5927239 
  451000    18.893127   -1.7180538  0.090358748    -1.627695 
  452000    15.055335   -1.6935651  0.072004027    -1.621561 
  453000    16.590557   -1.7247562   0.07934642   -1.6454098 
  454000    14.571615   -1.6972059  0.069690577   -1.6275154 
  455000    14.105861   -1.6918458  0.067463049   -1.6243828 
  456000    12.635611   -1.7135426  0.060431392   -1.6531112 
  457000    15.021782   -1.6872614  0.071843554   -1.6154178 
  458000    13.319525     -1.69752  0.063702298   -1.6338177 
  459000    16.417398   -1.7213818  0.078518266   -1.6428635 
  460000    13.097411   -1.6945516  0.062640012   -1.6319116 
  461000     21.55212   -1.6932477   0.10307572    -1.590172 
  462000    12.256106    -1.713947  0.058616362   -1.6553306 
  463000    13.745093     -1.69858  0.065737629   -1.6328424 
  464000    13.447417   -1.7013153   0.06431396   -1.6370013 
  465000    21.685456   -1.6940558   0.10371341   -1.5903424 
  466000    13.309012   -1.7121232   0.06365202   -1.6484711 
  467000    17.134323   -1.7084551   0.08194705   -1.6265081 
  468000    19.788244   -1.6857971  0.094639758   -1.5911573 
  469000    16.352164   -1.7042187  0.078206273   -1.6260124 
  470000    17.545086   -1.6574457  0.083911575   -1.5735341 
  471000    15.253227   -1.7342068  0.072950471   -1.6612564 
  472000    12.377001   -1.7347598  0.059194557   -1.6755652 
  473000    10.982482   -1.7419899  0.052525097   -1.6894648 
  474000    8.4221562   -1.7460781  0.040280018   -1.7057981 
  475000    7.9774207   -1.7508649  0.038153014   -1.7127119 
  476000    10.458995   -1.7540149  0.050021455   -1.7039935 
  477000    7.3135471    -1.748484  0.034977956   -1.7135061 
  478000    7.9656768   -1.7523529  0.038096848   -1.7142561 
  479000    10.717844   -1.7447109  0.051259432   -1.6934515 
  480000    7.4965282   -1.7532663  0.035853086   -1.7174132 
  481000     7.394429   -1.7405004  0.035364784   -1.7051356 
  482000    11.378164   -1.7108671  0.054417495   -1.6564496 
  483000     11.74388   -1.7357466  0.056166576   -1.6795801 
  484000    12.516757   -1.7415765   0.05986296   -1.6817135 
  485000    10.391382   -1.7426813  0.049698087   -1.6929832 
  486000    9.1855748   -1.7576167  0.043931163   -1.7136855 
  487000    10.940221   -1.7529824  0.052322979   -1.7006594 
  488000     6.119168   -1.7419646  0.029265688   -1.7126989 
  489000    11.795717   -1.7534215  0.056414497    -1.697007 
  490000    10.051049   -1.7489642  0.048070404   -1.7008938 
  491000    16.406387   -1.7315083  0.078465604   -1.6530427 
  492000     11.53643   -1.7144783  0.055174425   -1.6593038 
  493000    13.342886   -1.7334671  0.063814026    -1.669653 
  494000    10.166178   -1.7465784  0.048621019   -1.6979574 
  495000    13.132537   -1.7215037  0.062808003   -1.6586957 
  496000    12.341877   -1.7352902  0.059026572   -1.6762636 
  497000    9.7964011      -1.7518  0.046852516   -1.7049475 
  498000    9.2096372   -1.7409855  0.044046245   -1.6969393 
  499000    9.5124666    -1.757738  0.045494564   -1.7122434 
  500000     10.11459    -1.746528  0.048374296   -1.6981537 
  501000    9.1508209   -1.7409258  0.043764948   -1.6971608 
  502000    13.003181   -1.7472312  0.062189345   -1.6850418 
  503000    11.145059   -1.7266176   0.05330264    -1.673315 
  504000    12.753225   -1.7418855  0.060993898   -1.6808916 
  505000    12.440892   -1.7333574  0.059500128   -1.6738573 
  506000    13.116356   -1.7251081  0.062730616   -1.6623775 
  507000    13.158051   -1.7439702  0.062930027   -1.6810402 
  508000    8.0446077   -1.7499919  0.038474345   -1.7115176 
  509000    10.714004   -1.7435527   0.05124107   -1.6923117 
  510000    9.8886937   -1.7443721  0.047293917   -1.6970782 
  511000    7.7873616   -1.7445764  0.037244033   -1.7073323 
  512000    10.452374   -1.7447263   0.04998979   -1.6947365 
  513000    7.2922793    -1.744952   0.03487624   -1.7100758 
  514000    8.5330531   -1.7461821  0.040810396   -1.7053717 
  515000    9.3653285   -1.7414208  0.044790858   -1.6966299 
  516000     13.71427   -1.7310699  0.065590216   -1.6654797 
  517000    10.698504   -1.7258591  0.051166937   -1.6746921 
  518000    12.796276   -1.7309666  0.061199796   -1.6697668 
  519000    11.263653   -1.7100248  0.053869832   -1.6561549 
  520000    17.545965   -1.7077621  0.083915779   -1.6238463 
  521000    16.662345   -1.7087036  0.079689755   -1.6290138 
  522000    20.812022    -1.703336  0.099536106   -1.6037999 
  523000    19.410363    -1.697711  0.092832496   -1.6048785 
  524000    14.240831   -1.7173994  0.068108561   -1.6492909 
  525000    16.839142   -1.7172473  0.080535307   -1.6367119 
  526000    21.493057   -1.6904903   0.10279324    -1.587697 
  527000    12.773756    -1.711064  0.061092091   -1.6499719 
  528000    14.883553   -1.7106601   0.07118246   -1.6394776 
  529000    16.919176   -1.6881994  0.080918083   -1.6072813 
  530000    19.959979   -1.7199779  0.095461104   -1.6245168 
  531000     16.59411   -1.7140065  0.079363412   -1.6346431 
  532000    17.315776   -1.6817248  0.082814871     -1.59891 
  533000     18.19301   -1.7053083  0.087010353    -1.618298 
  534000    12.085269    -1.705288  0.057799313   -1.6474886 
  535000    14.648285   -1.7000247  0.070057261   -1.6299674 
  536000    16.037482   -1.6879747  0.076701266   -1.6112735 
  537000    13.548484   -1.7230764  0.064797321   -1.6582791 
  538000    18.975109    -1.704947  0.090750838   -1.6141962 
  539000    14.448927   -1.6779248  0.069103804    -1.608821 
  540000    16.994508    -1.708112  0.081278364   -1.6268336 
  541000    17.518862   -1.7058577  0.083786152   -1.6220716 
  542000    11.005985   -1.6883824  0.052637505   -1.6357449 
  543000    15.909425   -1.7122131   0.07608882   -1.6361243 
  544000    15.727685    -1.683519  0.075219625   -1.6082994 
  545000    19.623073   -1.6902436  0.093849808   -1.5963938 
  546000    16.879271   -1.7063698  0.080727227   -1.6256426 
  547000    19.025344   -1.7100102  0.090991093   -1.6190191 
  548000    15.943749   -1.7021667  0.076252977   -1.6259137 
  549000    17.439918   -1.7084138  0.083408592   -1.6250052 
  550000    14.642986   -1.6949151  0.070031917   -1.6248832 
  551000    18.116707   -1.7189778  0.086645424   -1.6323324 
  552000    13.218025   -1.6816137  0.063216861   -1.6183969 
  553000     16.46396   -1.7023618  0.078740954   -1.6236209 
  554000    15.339236   -1.7108267  0.073361819   -1.6374649 
  555000    23.572953    -1.716072    0.1127406   -1.6033314 
  556000    15.661664   -1.7166675  0.074903869   -1.6417636 
  557000    13.205865   -1.6823138  0.063158706   -1.6191551 
  558000    16.365728   -1.7222217  0.078271145   -1.6439506 
  559000    16.045585   -1.6988082  0.076740021   -1.6220682 
  560000    13.728677   -1.6735579  0.065659117   -1.6078987 
  561000    17.820511   -1.7097317  0.085228826   -1.6245028 
  562000    15.573221   -1.7166886  0.074480882   -1.6422077 
  563000    19.976005   -1.6791527  0.095537747   -1.5836149 
  564000    18.427395   -1.7082838  0.088131325   -1.6201525 
  565000    17.051328   -1.7143356  0.081550112   -1.6327854 
  566000    11.963843   -1.7440267  0.057218579   -1.6868081 
  567000     11.81705    -1.729051  0.056516525   -1.6725345 
  568000    11.645485   -1.7303737  0.055695991   -1.6746777 
  569000    14.255084   -1.7284295  0.068176728   -1.6602528 
  570000    11.055219   -1.7313311   0.05287297   -1.6784581 
  571000    12.866287   -1.7332171  0.061534633   -1.6716825 
  572000    10.330191   -1.7584656  0.049405432   -1.7090602 
  573000    10.255073   -1.7365113  0.049046173   -1.6874651 
  574000    12.547838   -1.7159261  0.060011609   -1.6559145 
  575000    13.513509   -1.7137819   0.06463005   -1.6491519 
  576000    14.205136    -1.749122  0.067937842   -1.6811842 
  577000    12.098213   -1.7383012   0.05786122     -1.68044 
  578000    11.299962   -1.7212517  0.054043487   -1.6672082 
  579000    12.541381   -1.7232921  0.059980727   -1.6633114 
  580000    12.001642   -1.7320238  0.057399358   -1.6746245 
  581000    12.608039   -1.7151222  0.060299527   -1.6548227 
  582000    14.693915   -1.7463441  0.070275492   -1.6760686 
  583000    11.539568   -1.7316614  0.055189431    -1.676472 
  584000    11.865435   -1.7289508   0.05674793   -1.6722028 
  585000    11.772554   -1.7375994  0.056303716   -1.6812957 
  586000    11.496026   -1.7302331  0.054981186   -1.6752519 
  587000    16.209054   -1.7255073  0.077521835   -1.6479855 
  588000    8.7285267   -1.7376028  0.041745273   -1.6958575 
  589000    9.5337258   -1.7551714  0.045596239   -1.7095751 
  590000    11.022226   -1.7513667  0.052715179   -1.6986516 
  591000    7.1117553    -1.734143  0.034012861   -1.7001302 
  592000    8.2403676   -1.7394217  0.039410591   -1.7000111 
  593000    7.4479247   -1.7489595  0.035620634   -1.7133389 
  594000    9.2533895   -1.7502485  0.044255495    -1.705993 
  595000     12.22505   -1.7183967  0.058467832   -1.6599289 
  596000    13.832413   -1.7301365  0.066155249   -1.6639812 
  597000    13.742009   -1.7284612   0.06572288   -1.6627383 
  598000    13.404726   -1.7368651  0.064109784   -1.6727553 
  599000    13.087067   -1.7417231  0.062590537   -1.6791325 
  600000    9.8334498   -1.7346244  0.047029706   -1.6875947 
  601000    13.611811   -1.7308342  0.065100194    -1.665734 
  602000    13.291055   -1.7316173  0.063566135   -1.6680512 
  603000     11.00841   -1.7354182    0.0526491   -1.6827691 
  604000    12.379645   -1.7208708  0.059207204   -1.6616636 
  605000    13.918184   -1.7096114  0.066565458   -1.6430459 
  606000    14.132882   -1.7109972  0.067592279   -1.6434049 
  607000    12.458245   -1.7057867   0.05958312   -1.6462036 
  608000    14.788456   -1.7009761  0.070727646   -1.6302484 
  609000    12.280324   -1.7069291   0.05873219   -1.6481969 
  610000    18.960202   -1.7075056  0.090679541   -1.6168261 
  611000    14.342012   -1.7087526  0.068592472   -1.6401602 
  612000    12.529553   -1.7082235   0.05992416   -1.6482994 
  613000    16.725874   -1.7026568  0.079993589   -1.6226632 
  614000    12.915357   -1.7454846  0.061769313   -1.6837153 
  615000     9.882131   -1.7520299   0.04726253   -1.7047673 
  616000    8.4152028   -1.7418506  0.040246763   -1.7016039 
  617000    9.6235046   -1.7483593  0.046025617   -1.7023337 
  618000    10.178981   -1.7439789  0.048682254   -1.6952967 
  619000    7.8017868   -1.7461452  0.037313024   -1.7088322 
  620000    7.8763715   -1.7454497  0.037669734   -1.7077799 
  621000    8.3572679   -1.7425125  0.039969681   -1.7025428 
  622000    9.1371556   -1.7407201  0.043699592   -1.6970205 
  623000    10.350231   -1.7573287  0.049501276   -1.7078274 
  624000    8.2374756   -1.7498847   0.03939676    -1.710488 
  625000    10.702701   -1.7454785  0.051187011   -1.6942915 
  626000    7.4208506   -1.7445199  0.035491148   -1.7090288 
  627000    7.0135989   -1.7460962  0.033543416   -1.7125528 
  628000    10.234254   -1.7523377  0.048946604    -1.703391 
  629000    8.8460376   -1.7428851  0.042307284   -1.7005778 
  630000     7.791927   -1.7518212  0.037265868   -1.7145553 
  631000    8.6116286   -1.7533282  0.041186194    -1.712142 
  632000    8.1761888   -1.7466403  0.039103648   -1.7075367 
  633000     8.503626   -1.7567264  0.040669657   -1.7160568 
  634000    7.6793416   -1.7516962  0.036727414   -1.7149688 
  635000    8.8829675   -1.7439008  0.042483906   -1.7014169 
  636000    9.3649855   -1.7434765  0.044789217   -1.6986872 
  637000    9.4493366   -1.7572056  0.045192637   -1.7120129 
  638000    5.7451248     -1.76279   0.02747678   -1.7353132 
  639000    5.9300357   -1.7544449  0.028361139   -1.7260838 
  640000    6.5527391   -1.7596672  0.031339296    -1.728328 
  641000    7.9217705   -1.7567088   0.03788686   -1.7188219 
  642000    8.8773596   -1.7434193  0.042457085   -1.7009622 
  643000    8.5353261   -1.7534599  0.040821267   -1.7126386 
  644000    8.1788983   -1.7503578  0.039116607   -1.7112412 
  645000    9.5044415     -1.73896  0.045456183   -1.6935038 
  646000    12.061697   -1.7276933  0.057686578   -1.6700067 
  647000    11.224918   -1.7302703  0.053684575   -1.6765858 
  648000    11.700361   -1.7141896  0.055958442   -1.6582312 
  649000    12.987502   -1.7248893  0.062114358   -1.6627749 
  650000    10.402424   -1.7454627  0.049750895   -1.6957118 
  651000    9.4570102    -1.744067  0.045229337   -1.6988376 
  652000    9.8527791   -1.7532592  0.047122151    -1.706137 
  653000    8.8766558   -1.7482701  0.042453719   -1.7058164 
  654000    8.0098858   -1.7331113  0.038308283    -1.694803 
  655000    10.977925   -1.7375921  0.052503304   -1.6850888 
  656000    8.3728509   -1.7290912  0.040044209    -1.689047 
  657000    11.247302   -1.7397995  0.053791633   -1.6860079 
  658000    13.269147   -1.7444938   0.06346136   -1.6810324 
  659000    11.300028   -1.7195915  0.054043803   -1.6655477 
  660000    15.297028   -1.7150825  0.073159953   -1.6419225 
  661000    16.326019   -1.7095569  0.078081233   -1.6314757 
  662000     18.84429   -1.7114203   0.09012518   -1.6212952 
  663000    15.131548   -1.7064993  0.072368523   -1.6341307 
  664000    17.261351   -1.6991926  0.082554574    -1.616638 
  665000    16.751761   -1.7237767  0.080117399   -1.6436593 
  666000    14.754099   -1.7101342  0.070563329   -1.6395709 
  667000    16.195269   -1.7103799  0.077455902    -1.632924 
  668000    14.205553   -1.7047039   0.06793984   -1.6367641 
  669000    14.749477   -1.7109407  0.070541221   -1.6403994 
  670000    13.065704   -1.7077081  0.062488368   -1.6452198 
  671000    15.341151   -1.7118415  0.073370976   -1.6384706 
  672000    18.165105   -1.6955955  0.086876891   -1.6087186 
  673000    16.674413   -1.6963735  0.079747468   -1.6166261 
  674000      15.9895   -1.7085659   0.07647179   -1.6320941 
  675000    17.705592   -1.7004105  0.084679212   -1.6157313 
  676000    17.089211   -1.7237485  0.081731294   -1.6420172 
  677000    15.521845   -1.7050604  0.074235169   -1.6308252 
  678000    14.422005   -1.6973246  0.068975048   -1.6283496 
  679000    12.606295   -1.7138221  0.060291185   -1.6535309 
  680000    16.688711   -1.7108508  0.079815851    -1.631035 
  681000    14.664756   -1.7183302  0.070136033   -1.6481942 
  682000    13.609317   -1.7073622  0.065088263   -1.6422739 
  683000    13.780186   -1.7007907  0.065905469   -1.6348852 
  684000    16.876053   -1.7180968  0.080711837    -1.637385 
  685000     11.95932   -1.7366576  0.057196945   -1.6794607 
  686000     11.41069   -1.7292521  0.054573057    -1.674679 
  687000     13.33755   -1.7310364  0.063788506   -1.6672479 
  688000    11.956621   -1.7311176   0.05718404   -1.6739336 
  689000    12.307373   -1.7456019  0.058861557   -1.6867403 
  690000    14.562963   -1.7190102  0.069649196    -1.649361 
  691000    18.014464   -1.6812551   0.08615643   -1.5950986 
  692000    19.060845   -1.7138807   0.09116088   -1.6227198 
  693000    12.515452   -1.7072662  0.059856717   -1.6474095 
  694000    17.150872   -1.7039873  0.082026196   -1.6219611 
  695000    15.821874   -1.6914884  0.075670096   -1.6158183 
  696000    19.556901   -1.7082449  0.093533333   -1.6147116 
  697000    14.234828   -1.7101584  0.068079849   -1.6420786 
  698000    17.986527   -1.7088062  0.086022819   -1.6227833 
  699000    12.760479   -1.7057393   0.06102859   -1.6447107 
  700000    15.749038    -1.719255  0.075321749   -1.6439332 
  701000    8.9910573   -1.7329406  0.043000859   -1.6899398 
  702000    12.424205   -1.7347934  0.059420318    -1.675373 
  703000    13.247698   -1.7291182  0.063358775   -1.6657594 
  704000    9.2855658   -1.7230657  0.044409383   -1.6786563 
  705000    9.5364045   -1.7320678   0.04560905   -1.6864587 
  706000    12.832665    -1.733511  0.061373829   -1.6721371 
  707000    10.409661   -1.7277313   0.04978551   -1.6779458 
  708000     13.20294   -1.7071371  0.063144714   -1.6439924 
  709000     12.05434   -1.7431592   0.05765139   -1.6855078 
  710000    10.088245   -1.7531411  0.048248294   -1.7048928 
  711000    9.9784616    -1.731906  0.047723243   -1.6841828 
  712000    13.809631   -1.7373651  0.066046293   -1.6713188 
  713000     13.32356   -1.7241656  0.063721598    -1.660444 
  714000     8.390867   -1.7268152  0.040130373   -1.6866848 
  715000    11.822669   -1.7409214  0.056543399    -1.684378 
  716000    12.423408   -1.7236551  0.059416504   -1.6642386 
  717000    17.755601   -1.7071817  0.084918387   -1.6222633 
  718000    12.586813   -1.7011895   0.06019801   -1.6409915 
  719000    17.527546   -1.7041018  0.083827684   -1.6202741 
  720000    16.703584   -1.6995352  0.079886984   -1.6196482 
  721000    14.373318   -1.7210899  0.068742194   -1.6523477 
  722000    14.411906   -1.7110812  0.068926749   -1.6421544 
  723000    16.638534   -1.6819213  0.079575874   -1.6023455 
  724000    12.774801   -1.6851951   0.06109709    -1.624098 
  725000    13.980672   -1.7173446  0.066864319   -1.6504803 
  726000    17.035528   -1.7035135  0.081474548   -1.6220389 
  727000    17.394252   -1.7148013   0.08319019   -1.6316111 
  728000    15.537026   -1.6979325  0.074307773   -1.6236247 
  729000    15.754032   -1.7197363  0.075345634   -1.6443906 
  730000    12.338837   -1.6840129  0.059012037   -1.6250008 
  731000     12.83916   -1.7077781  0.061404895   -1.6463732 
  732000    18.067719   -1.7120755  0.086411133   -1.6256643 
  733000    16.581486   -1.6986575  0.079303035   -1.6193544 
  734000    20.431043   -1.7255642  0.097714025   -1.6278501 
  735000    17.726294   -1.7074242  0.084778226    -1.622646 
  736000    13.210666   -1.7163262  0.063181666   -1.6531445 
  737000     14.13118   -1.6917374  0.067584139   -1.6241532 
  738000    19.001985   -1.7140948  0.090879375   -1.6232154 
  739000    15.172877   -1.7057587  0.072566186   -1.6331925 
  740000    15.605211   -1.7075362   0.07463388   -1.6329023 
  741000     17.85339   -1.7258737  0.085386077   -1.6404876 
  742000    14.586771   -1.6873766  0.069763063   -1.6176136 
  743000    15.952543   -1.6917863  0.076295037   -1.6154913 
  744000    14.026023   -1.7126224  0.067081211   -1.6455412 
  745000    13.508834   -1.7237141  0.064607692   -1.6591064 
  746000    13.431288   -1.7267094  0.064236818   -1.6624726 
  747000    13.976421   -1.7336651  0.066843986   -1.6668211 
  748000    8.7945169   -1.7342939   0.04206088   -1.6922331 
  749000    11.511212   -1.7260788  0.055053814   -1.6710249 
  750000    14.324533   -1.7252849  0.068508875    -1.656776 
  751000     17.91497   -1.7083485  0.085680588   -1.6226679 
  752000    14.018906   -1.7029519  0.067047174   -1.6359047 
  753000    19.261221   -1.7089635  0.092119203   -1.6168443 
  754000    13.537056   -1.7060863  0.064742669   -1.6413437 
  755000    14.694473   -1.7068517   0.07027816   -1.6365735 
  756000    15.871767   -1.7115089  0.075908715   -1.6356001 
  757000    15.509311    -1.702159  0.074175222   -1.6279838 
  758000    15.941391   -1.7252025  0.076241702   -1.6489608 
  759000    15.888163   -1.6988088  0.075987129   -1.6228217 
  760000      18.2166   -1.7134815  0.087123171   -1.6263584 
  761000    15.733669   -1.6963853  0.075248244   -1.6211371 
  762000    15.708016   -1.7140052  0.075125555   -1.6388796 
  763000    15.929881   -1.7024819  0.076186651   -1.6262952 
  764000    20.547069   -1.7213989  0.098268935   -1.6231299 
  765000     13.35164   -1.7143571   0.06385589   -1.6505012 
  766000    16.285468   -1.7182495  0.077887294   -1.6403622 
  767000    16.850239   -1.7031704  0.080588382    -1.622582 
  768000    15.522591   -1.7082713   0.07423874   -1.6340326 
  769000    12.531689   -1.7056497  0.059934376   -1.6457153 
  770000    17.388454   -1.7055621   0.08316246   -1.6223996 
  771000    15.509734   -1.7142536  0.074177247   -1.6400764 
  772000    21.252252   -1.7103531   0.10164156   -1.6087115 
  773000    15.666915   -1.7027222  0.074928987   -1.6277932 
  774000    18.529279   -1.7166924    0.0886186   -1.6280738 
  775000    18.100623   -1.6795777    0.0865685   -1.5930092 
  776000    15.671956   -1.7064106  0.074953092   -1.6314575 
  777000    14.266207   -1.7144313  0.068229925   -1.6462013 
  778000    19.258663   -1.7048592  0.092106968   -1.6127523 
  779000    14.899431   -1.6885683  0.071258397   -1.6173099 
  780000    19.128213   -1.7027247  0.091483078   -1.6112416 
  781000    15.618572   -1.7201244  0.074697778   -1.6454267 
  782000    16.689702   -1.6973619  0.079820594   -1.6175413 
  783000    13.394618   -1.6989967  0.064061441   -1.6349352 
  784000    16.066504   -1.6962232  0.076840071   -1.6193831 
  785000    20.682875   -1.7077428  0.098918443   -1.6088244 
  786000    14.234093   -1.7098227  0.068076335   -1.6417464 
  787000    19.798026   -1.7091933  0.094686539   -1.6145067 
  788000    19.041074   -1.7195002  0.091066324   -1.6284339 
  789000     17.90844   -1.7007109  0.085649361   -1.6150615 
  790000     18.56065     -1.71436  0.088768633   -1.6255914 
  791000    20.945347   -1.6945755   0.10017375   -1.5944017 
  792000    15.272019   -1.7212922  0.073040346   -1.6482518 
  793000     18.33403   -1.7087537  0.087684795   -1.6210689 
  794000    16.937233   -1.6989592   0.08100444   -1.6179548 
  795000    12.858893   -1.7270936   0.06149927   -1.6655943 
  796000     19.29599   -1.6898463  0.092285493   -1.5975608 
  797000     14.97932   -1.7068599  0.071640478   -1.6352195 
  798000    12.728427   -1.7196237  0.060875298   -1.6587484 
  799000    17.747655   -1.6797187  0.084880386   -1.5948383 
  800000    15.408388    -1.724365  0.073692545   -1.6506724 
  801000    13.170203   -1.6970513  0.062988147   -1.6340631 
  802000    12.418721   -1.7077785  0.059394091   -1.6483844 
  803000    14.738897   -1.7064713  0.070490624   -1.6359806 
  804000    13.502729   -1.7250838  0.064578495   -1.6605053 
  805000    20.185965   -1.6953234  0.096541909   -1.5987815 
  806000    13.325625   -1.7034767  0.063731474   -1.6397452 
  807000    16.970891   -1.6990747  0.081165413   -1.6179093 
  808000    18.970531   -1.7109572  0.090728942   -1.6202283 
  809000    15.506864    -1.693748   0.07416352   -1.6195845 
  810000    19.357707    -1.716382  0.092580661   -1.6238013 
  811000    17.444176     -1.72356  0.083428957    -1.640131 
  812000    18.127775   -1.7199596  0.086698355   -1.6332612 
  813000    16.636115   -1.7024121  0.079564307   -1.6228478 
  814000     16.01279   -1.6852303  0.076583174   -1.6086472 
  815000    15.966921   -1.7112517  0.076363799   -1.6348879 
  816000    14.494616   -1.7203207   0.06932232   -1.6509984 
  817000    19.167201   -1.6959746  0.091669544   -1.6043051 
  818000    15.821235   -1.7145757   0.07566704   -1.6389086 
  819000    17.769115   -1.7057945   0.08498302   -1.6208115 
  820000    16.619789   -1.6912689  0.079486223   -1.6117827 
  821000    17.714809   -1.6960027  0.084723295   -1.6112794 
  822000    14.084967   -1.7071465  0.067363121   -1.6397834 
  823000     14.69037   -1.7092259  0.070258535   -1.6389674 
  824000     17.31225   -1.7069982  0.082798008   -1.6242002 
  825000    14.576205   -1.7107943  0.069712527   -1.6410817 
  826000    15.745381   -1.7160741  0.075304258   -1.6407699 
  827000     15.94164   -1.7030823  0.076242894   -1.6268394 
  828000    15.748519   -1.7274374  0.075319267   -1.6521182 
  829000    19.991567   -1.7131984  0.095612177   -1.6175862 
  830000    14.266645   -1.7091966  0.068232016   -1.6409646 
  831000    17.645361   -1.7143979  0.084391151   -1.6300067 
  832000    18.242066   -1.7166473  0.087244967   -1.6294023 
  833000    12.999862   -1.7092682   0.06217347   -1.6470947 
  834000    10.390788   -1.7083304  0.049695247   -1.6586352 
  835000    13.594285    -1.701005  0.065016373   -1.6359887 
  836000    14.791644   -1.7106367  0.070742892   -1.6398938 
  837000    17.185499   -1.7060594  0.082191804   -1.6238676 
  838000    18.631986   -1.7152221  0.089109808   -1.6261123 
  839000    15.353989   -1.7378237  0.073432376   -1.6643913 
  840000    12.095276   -1.7323168  0.057847176   -1.6744697 
  841000    11.155627   -1.7118958  0.053353186   -1.6585426 
  842000    9.3902094   -1.7412999  0.044909854     -1.69639 
  843000    12.876733    -1.718188   0.06158459   -1.6566034 
  844000     15.54366   -1.6992261  0.074339501   -1.6248866 
  845000    16.520114   -1.7049939  0.079009517   -1.6259844 
  846000    15.279404   -1.7003958  0.073075665   -1.6273201 
  847000    18.879709   -1.7115945  0.090294577      -1.6213 
  848000    14.798963   -1.7086793  0.070777895   -1.6379014 
  849000    14.882227    -1.715003  0.071176114   -1.6438269 
  850000    11.910881   -1.6908579  0.056965282   -1.6338926 
  851000    15.910948   -1.7268525  0.076096104   -1.6507564 
  852000     12.41609   -1.7196268  0.059381506   -1.6602453 
  853000    11.949101   -1.7398224  0.057148072   -1.6826743 
  854000    11.994638   -1.7381004   0.05736586   -1.6807345 
  855000    12.070056   -1.7335356  0.057726558    -1.675809 
  856000    13.466854   -1.7275377   0.06440692   -1.6631308 
  857000    13.193559   -1.7362069  0.063099848    -1.673107 
  858000    9.1338881    -1.752448  0.043683965    -1.708764 
  859000    7.6586681   -1.7560295   0.03662854    -1.719401 
  860000     9.142844    -1.749322  0.043726797   -1.7055952 
  861000    7.8058927    -1.737838   0.03733266   -1.7005054 
  862000    7.5597926   -1.7538003  0.036155656   -1.7176447 
  863000    8.7994973   -1.7551004  0.042084699   -1.7130157 
  864000    10.536773   -1.7430309  0.050393436   -1.6926374 
  865000    8.0073878   -1.7532097  0.038296336   -1.7149134 
  866000    9.0628713   -1.7544213  0.043344318   -1.7110769 
  867000    8.7382975   -1.7445644  0.041792003   -1.7027724 
  868000    7.4977405   -1.7435574  0.035858884   -1.7076985 
  869000    7.9572301    -1.740192  0.038056451   -1.7021356 
  870000    9.2670435   -1.7494936  0.044320797   -1.7051728 
  871000    8.1588915   -1.7535403  0.039020921   -1.7145194 
  872000    8.9630922   -1.7348958  0.042867112   -1.6920287 
  873000    9.2740497   -1.7576477  0.044354305   -1.7132934 
  874000    8.4739874   -1.7436721  0.040527907   -1.7031441 
  875000     13.37825   -1.7484979  0.063983156   -1.6845147 
  876000    8.2060718   -1.7468371  0.039246567   -1.7075906 
  877000    7.1911876   -1.7500343  0.034392756   -1.7156415 
  878000    7.4418254   -1.7516559  0.035591463   -1.7160644 
  879000    10.133144   -1.7518783  0.048463032   -1.7034153 
  880000    7.5323309   -1.7545782  0.036024317   -1.7185539 
  881000     10.11671   -1.7489306  0.048384432   -1.7005462 
  882000    9.9835487   -1.7447932  0.047747573   -1.6970456 
  883000    9.4575659   -1.7509861  0.045231994   -1.7057541 
  884000    9.2842218   -1.7475076  0.044402955   -1.7031047 
  885000    10.336988   -1.7306645  0.049437943   -1.6812265 
  886000    9.9902976   -1.7466356  0.047779851   -1.6988557 
  887000    8.6391631   -1.7475797  0.041317881   -1.7062618 
  888000    9.9303229   -1.7460626  0.047493014   -1.6985696 
  889000    10.160266   -1.7383156  0.048592746   -1.6897229 
  890000    8.6855982   -1.7385841  0.041539962   -1.6970442 
  891000    9.1429132   -1.7496859  0.043727129   -1.7059588 
  892000    9.7201213   -1.7493978  0.046487699   -1.7029101 
  893000    8.6053521   -1.7414312  0.041156175   -1.7002751 
  894000    7.7761243   -1.7493588  0.037190289   -1.7121685 
  895000    9.3560634   -1.7452989  0.044746546   -1.7005524 
  896000     9.351275   -1.7521786  0.044723645    -1.707455 
  897000    8.5067336   -1.7379147   0.04068452   -1.6972302 
  898000    13.973489   -1.7341732  0.066829964   -1.6673432 
  899000    14.447035   -1.7217792  0.069094757   -1.6526845 
  900000    12.539992   -1.7317067  0.059974086   -1.6717327 
  901000     11.34169   -1.7364101  0.054243054    -1.682167 
  902000    10.543719   -1.7270603  0.050426656   -1.6766337 
  903000    11.401746   -1.7187972  0.054530281   -1.6642669 
  904000    12.403284   -1.7250341   0.05932026   -1.6657138 
  905000    12.271224   -1.7373791  0.058688668   -1.6786904 
  906000    12.729746   -1.7275019  0.060881605   -1.6666203 
  907000    15.373771   -1.7272261  0.073526988   -1.6536991 
  908000    13.052355   -1.7259166  0.062424524   -1.6634921 
  909000    12.378464   -1.7273963  0.059201557   -1.6681947 
  910000    15.352661   -1.7313775  0.073426024   -1.6579515 
  911000    14.889662   -1.6722763  0.071211673   -1.6010647 
  912000    15.092256   -1.7143124  0.072180608   -1.6421318 
  913000    16.084505   -1.7134265  0.076926161   -1.6365004 
  914000    16.194884   -1.7013043  0.077454062   -1.6238502 
  915000    20.489435   -1.7090075   0.09799329   -1.6110142 
  916000    12.411784   -1.6947288  0.059360912   -1.6353679 
  917000    20.235043   -1.7182115  0.096776632   -1.6214349 
  918000    14.311943   -1.7164644  0.068448662   -1.6480157 
  919000    13.224961   -1.7446276  0.063250034   -1.6813776 
  920000    12.047596   -1.7288236   0.05761914   -1.6712044 
  921000    11.144431   -1.7376841  0.053299639   -1.6843845 
  922000    12.069445   -1.7267451  0.057723634   -1.6690214 
  923000    10.545892   -1.7382655   0.05043705   -1.6878284 
  924000    12.183873   -1.7341949  0.058270899    -1.675924 
  925000    12.526654   -1.7315636  0.059910293   -1.6716533 
  926000    13.057379   -1.7335428  0.062448554   -1.6710943 
  927000    13.526393   -1.7249863  0.064691672   -1.6602946 
  928000    12.641654   -1.7400358  0.060460297   -1.6795755 
  929000    14.133146   -1.7297519   0.06759354   -1.6621584 
  930000    11.624714   -1.7289872  0.055596654   -1.6733905 
  931000    10.973561   -1.7317882  0.052482429   -1.6793058 
  932000    11.163292   -1.7030103  0.053389844   -1.6496204 
  933000     13.56328   -1.6966381  0.064868087     -1.63177 
  934000     18.13278   -1.6959654  0.086722294   -1.6092431 
  935000    10.044473   -1.6951281  0.048038953   -1.6470892 
  936000    14.625301   -1.7057289  0.069947338   -1.6357815 
  937000     16.39066   -1.7078345  0.078390384   -1.6294442 
  938000     17.50536   -1.7017775  0.083721581   -1.6180559 
  939000    16.238804   -1.7096002  0.077664116    -1.631936 
  940000    15.361429   -1.7051809  0.073467959   -1.6317129 
  941000    17.532719   -1.7063357  0.083852426   -1.6224833 
  942000    16.577722   -1.7021325  0.079285034   -1.6228474 
  943000    17.149914   -1.7027746  0.082021613    -1.620753 
  944000    12.838077   -1.6916019  0.061399714   -1.6302022 
  945000    16.223906   -1.7174513  0.077592864   -1.6398584 
  946000     19.29531   -1.6808189  0.092282238   -1.5885366 
  947000    18.063421    -1.728211  0.086390574   -1.6418204 
  948000    14.208003   -1.6852524  0.067951554   -1.6173008 
  949000    12.832358   -1.6834958  0.061372361   -1.6221234 
  950000    18.388438    -1.713709  0.087945011    -1.625764 
  951000    13.215115   -1.7216161  0.063202946   -1.6584132 
  952000    15.698111   -1.6852229  0.075078184   -1.6101448 
  953000    18.811228   -1.7321712  0.089967055   -1.6422042 
  954000    12.513191   -1.7338956  0.059845904   -1.6740497 
  955000    11.309034   -1.7175907  0.054086873   -1.6635038 
  956000    13.637029   -1.7042039  0.065220803   -1.6389831 
  957000    16.809381   -1.7194251  0.080392973   -1.6390321 
  958000    14.361453   -1.6988353  0.068685448   -1.6301498 
  959000    12.226957   -1.7037328  0.058476953   -1.6452559 
  960000    15.756828   -1.7014831  0.075359006   -1.6261241 
  961000    15.610944   -1.6773672  0.074661296   -1.6027059 
  962000    16.745938   -1.7082649  0.080089549   -1.6281754 
  963000    16.508786    -1.700164  0.078955338   -1.6212086 
  964000    20.607091   -1.6818743  0.098555995   -1.5833183 
  965000    17.301985   -1.7044977  0.082748911   -1.6217488 
  966000    16.727888   -1.7092834  0.080003223   -1.6292802 
  967000    16.793737   -1.6853775  0.080318151   -1.6050593 
  968000    14.868898   -1.7221251  0.071112369   -1.6510127 
  969000    17.460038   -1.7077273  0.083504819   -1.6242225 
  970000    15.570638   -1.6985018  0.074468528   -1.6240333 
  971000    17.751993    -1.697456  0.084901131   -1.6125549 
  972000    19.873598   -1.6967359  0.095047972    -1.601688 
  973000    12.043901   -1.7134832  0.057601466   -1.6558817 
  974000    11.949016   -1.7276119  0.057147669   -1.6704642 
  975000    10.949765   -1.7368943  0.052368623   -1.6845257 
  976000    8.1565453   -1.7431174  0.039009701   -1.7041077 
  977000    11.337251   -1.7545128  0.054221826    -1.700291 
  978000    8.7870349   -1.7590392  0.042025096   -1.7170141 
  979000    7.1494931   -1.7535075  0.034193347   -1.7193141 
  980000    6.7554443   -1.7682146  0.032308759   -1.7359058 
  981000    7.0212884   -1.7511697  0.033580192   -1.7175895 
  982000    8.3160918   -1.7579355  0.039772752   -1.7181627 
  983000    6.4845014   -1.7612697  0.031012941   -1.7302568 
  984000    7.1134411   -1.7616233  0.034020924   -1.7276024 
  985000    6.9193769   -1.7674927  0.033092787   -1.7343999 
  986000    4.7213656   -1.7726098  0.022580523   -1.7500293 
  987000    3.9410725   -1.7698236  0.018848673    -1.750975 
  988000    4.0044665   -1.7800157  0.019151863   -1.7608639 
  989000     5.087388   -1.7736935  0.024331071   -1.7493624 
  990000     3.211727   -1.7728203  0.015360487   -1.7574598 
  991000    3.9340552   -1.7755349  0.018815112   -1.7567198 
  992000    3.9744819   -1.7825288  0.019008458   -1.7635203 
  993000    3.3872974   -1.7812184  0.016200174   -1.7650182 
  994000    3.5616072   -1.7766344  0.017033833   -1.7596006 
  995000    3.6708867   -1.7759941  0.017556476   -1.7584376 
  996000    3.4959908   -1.7822148  0.016720014   -1.7654948 
  997000    4.5254581   -1.7773201  0.021643571   -1.7556765 
  998000    3.8105759   -1.7767829  0.018224557   -1.7585583 
  999000    3.5671296    -1.781409  0.017060245   -1.7643488 
 1000000    2.7624109   -1.7776809  0.013211576   -1.7644693 
 1001000    3.8906159   -1.7763322  0.018607358   -1.7577248 
 1002000    3.5657241   -1.7776645  0.017053523    -1.760611 
 1003000    3.2344463   -1.7751289  0.015469145   -1.7596598 
 1004000    4.6208193   -1.7772305  0.022099647   -1.7551309 
 1005000    3.7698872   -1.7750878  0.018029958   -1.7570578 
 1006000       3.4802   -1.7772576  0.016644493   -1.7606131 
 1007000    3.9577231   -1.7798111  0.018928307   -1.7608828 
 1008000     3.270859    -1.783556  0.015643293   -1.7679127 
 1009000    2.5283938   -1.7879812   0.01209236   -1.7758888 
 1010000    2.1858818   -1.7824176  0.010454254   -1.7719633 
 1011000    2.6012138   -1.7856385  0.012440631   -1.7731978 
 1012000    2.3663272   -1.7855364  0.011317256   -1.7742192 
 1013000    2.4835962   -1.7881186   0.01187811   -1.7762405 
 1014000    2.1361124   -1.7850133  0.010216225   -1.7747971 
 1015000    2.4622334    -1.785631   0.01177594    -1.773855 
 1016000    1.6946631   -1.7820226 0.0081049389   -1.7739177 
 1017000    2.9575877   -1.7840976  0.014145034   -1.7699525 
 1018000    2.1686401   -1.7808026  0.010371793   -1.7704308 
 1019000    2.1814989   -1.7862594  0.010433292   -1.7758261 
 1020000    2.8707737   -1.7816431  0.013729835   -1.7679133 
 1021000    2.3605677   -1.7865733  0.011289711   -1.7752836 
 1022000    2.0249852   -1.7892386 0.0096847458   -1.7795538 
 1023000    1.9000682   -1.7877672 0.0090873141   -1.7786799 
 1024000    1.8790644   -1.7899502 0.0089868612   -1.7809634 
 1025000    2.1178373   -1.7888346  0.010128822   -1.7787058 
 1026000    1.8152529    -1.788069 0.0086816748   -1.7793873 
 1027000    2.0201365    -1.790069 0.0096615559   -1.7804075 
 1028000    2.1985993   -1.7891339  0.010515077   -1.7786188 
 1029000    1.7317877   -1.7863994 0.0082824919   -1.7781169 
 1030000    2.3765895   -1.7899864  0.011366337     -1.77862 
 1031000    2.1737163   -1.7886751  0.010396071    -1.778279 
 1032000    1.5330347   -1.7877929 0.0073319305   -1.7804609 
 1033000    2.1833041   -1.7893655  0.010441926   -1.7789236 
 1034000    2.1894127   -1.7860635  0.010471141   -1.7755923 
 1035000    1.7030034   -1.7893874 0.0081448273   -1.7812425 
 1036000     2.077144   -1.7881159 0.0099342018   -1.7781817 
 1037000    2.3546698   -1.7856187  0.011261503   -1.7743572 
 1038000    2.8195264   -1.7850388  0.013484739   -1.7715541 
 1039000    2.5909708   -1.7849658  0.012391643   -1.7725742 
 1040000     3.215813   -1.7797784  0.015380029   -1.7643984 
 1041000    3.5820392   -1.7852722  0.017131551   -1.7681407 
 1042000    3.4577336   -1.7751759  0.016537044   -1.7586389 
 1043000    5.4557183   -1.7672323  0.026092657   -1.7411396 
 1044000    7.4600679   -1.7579212   0.03567871   -1.7222425 
 1045000     7.279379   -1.7670633  0.034814543   -1.7322488 
 1046000    5.5642796   -1.7524607  0.026611865   -1.7258489 
 1047000    6.3903162   -1.7676398  0.030562488   -1.7370773 
 1048000    4.9708056   -1.7640803  0.023773501   -1.7403068 
 1049000    5.6033787   -1.7630496  0.026798861   -1.7362508 
 1050000    6.3081823   -1.7582052  0.030169673   -1.7280355 
 1051000    6.7539109   -1.7576853  0.032301426   -1.7253839 
 1052000    8.6864523   -1.7502872  0.041544047   -1.7087432 
 1053000    9.8819341   -1.7586514  0.047261589   -1.7113899 
 1054000    10.152711    -1.750679  0.048556614   -1.7021224 
 1055000    9.7337829   -1.7529496  0.046553037   -1.7063965 
 1056000    11.225791   -1.7453437  0.053688753    -1.691655 
 1057000    9.9962051   -1.7448077  0.047808104   -1.6969996 
 1058000        9.117   -1.7491917  0.043603195   -1.7055885 
 1059000    9.2523848    -1.753074   0.04425069   -1.7088233 
 1060000    8.2885786   -1.7419639  0.039641166   -1.7023227 
 1061000    8.8921397   -1.7549556  0.042527773   -1.7124278 
 1062000    9.7220607    -1.748589  0.046496974   -1.7020921 
 1063000    9.2949466   -1.7489358  0.044454248   -1.7044816 
 1064000    9.9499239   -1.7474679  0.047586758   -1.6998811 
 1065000    9.5707153   -1.7449897  0.045773146   -1.6992166 
 1066000     8.655203   -1.7542937  0.041394593   -1.7128991 
 1067000    8.3857259   -1.7471959  0.040105785   -1.7070901 
 1068000    7.5950917   -1.7463969  0.036324478   -1.7100724 
 1069000    7.8463154   -1.7562621  0.037525987   -1.7187361 
 1070000    6.8152798   -1.7601633   0.03259493   -1.7275684 
 1071000     5.982468    -1.768091  0.028611903   -1.7394791 
 1072000    6.9408464     -1.75196  0.033195468   -1.7187645 
 1073000    11.475802   -1.7420249  0.054884463   -1.6871404 
 1074000    9.5031774   -1.7471521  0.045450137    -1.701702 
 1075000    15.107251   -1.7280996  0.072252322   -1.6558473 
 1076000    14.658493   -1.7259853   0.07010608   -1.6558792 
 1077000    9.7591433   -1.7414666  0.046674326   -1.6947923 
 1078000    7.8661982   -1.7466991  0.037621079    -1.709078 
 1079000    9.3907991   -1.7466796  0.044912674   -1.7017669 
 1080000    7.6536878    -1.747178  0.036604722   -1.7105733 
 1081000    8.8285361    -1.749077  0.042223581   -1.7068534 
 1082000    9.9500064   -1.7441652  0.047587153    -1.696578 
 1083000    11.107229   -1.7565705  0.053121717   -1.7034488 
 1084000    10.681346   -1.7404873  0.051084875   -1.6894024 
 1085000    13.613039   -1.7250119  0.065106066   -1.6599058 
 1086000    13.205648   -1.7326274  0.063157666   -1.6694697 
 1087000    10.591062   -1.7357324  0.050653084   -1.6850793 
 1088000    11.700571   -1.7276174  0.055959445    -1.671658 
 1089000    10.041031   -1.7277126  0.048022488   -1.6796901 
 1090000    10.645183   -1.7384629  0.050911924    -1.687551 
 1091000    9.3082757   -1.7242492  0.044517995   -1.6797312 
 1092000    12.041816    -1.741975  0.057591492   -1.6843835 
 1093000    11.527329   -1.7362176  0.055130898   -1.6810867 
 1094000    12.601153   -1.7426564  0.060266592   -1.6823898 
 1095000    10.853668   -1.7355618  0.051909029   -1.6836528 
 1096000    12.568612    -1.732657  0.060110961   -1.6725461 
 1097000     13.22415     -1.72035  0.063246153   -1.6571038 
 1098000    11.923879   -1.7384801  0.057027446   -1.6814526 
 1099000    11.578387   -1.7250211  0.055375085    -1.669646 
 1100000    8.8762807   -1.7234688  0.042451925   -1.6810169 
 1101000    14.064606   -1.7291848   0.06726574   -1.6619191 
 1102000    12.088064   -1.7516349   0.05781268   -1.6938222 
 1103000    9.8523961    -1.735432   0.04712032   -1.6883116 
 1104000    11.513152   -1.7264052  0.055063092   -1.6713421 
 1105000    13.841809   -1.7322489  0.066200185   -1.6660487 
 1106000    9.7884773   -1.7385337   0.04681462   -1.6917191 
 1107000    9.7479789   -1.7161552  0.046620931   -1.6695342 
 1108000    12.373645   -1.7364593  0.059178509   -1.6772808 
 1109000    11.360677   -1.7397514   0.05433386   -1.6854175 
 1110000    10.243929   -1.7227244  0.048992876   -1.6737316 
 1111000    11.329492    -1.731932  0.054184714   -1.6777473 
 1112000    7.5977339   -1.7596908  0.036337115   -1.7233536 
 1113000    8.4368576     -1.75609  0.040350329   -1.7157396 
 1114000    5.3548189   -1.7670977  0.025610093   -1.7414877 
 1115000    6.4760957   -1.7574425   0.03097274   -1.7264697 
 1116000     6.973697   -1.7553606   0.03335258    -1.722008 
 1117000    5.5081157   -1.7530865  0.026343254   -1.7267433 
 1118000    7.2791476   -1.7649794  0.034813436   -1.7301659 
 1119000    5.8178019    -1.757538  0.027824367   -1.7297136 
 1120000    4.8671042   -1.7591096  0.023277536    -1.735832 
 1121000    6.2816653   -1.7602018  0.030042852   -1.7301589 
 1122000    8.4192718   -1.7645329  0.040266223   -1.7242666 
 1123000    6.1560434   -1.7545843  0.029442049   -1.7251422 
 1124000    10.057819   -1.7413318  0.048102779    -1.693229 
 1125000    8.5719713   -1.7425983  0.040996528   -1.7016018 
 1126000    8.2051187   -1.7531798  0.039242009   -1.7139378 
 1127000    10.157379   -1.7500012  0.048578939   -1.7014223 
 1128000    10.589143   -1.7396124  0.050643904   -1.6889685 
 1129000    9.6032732   -1.7439441  0.045928858   -1.6980153 
 1130000    9.8547421   -1.7602753   0.04713154   -1.7131438 
 1131000    8.0214876     -1.75647   0.03836377   -1.7181063 
 1132000    11.068867   -1.7513726  0.052938242   -1.6984343 
 1133000    9.7241032   -1.7430856  0.046506743   -1.6965788 
 1134000    10.089853   -1.7576668  0.048255988   -1.7094108 
 1135000    10.666173    -1.745202  0.051012308   -1.6941897 
 1136000    10.803163   -1.7421905  0.051667482    -1.690523 
 1137000     10.45833    -1.754114  0.050018272   -1.7040957 
 1138000     11.56849   -1.7449177  0.055327753   -1.6895899 
 1139000    10.121257   -1.7542973  0.048406182   -1.7058911 
 1140000    10.309352   -1.7458511  0.049305767   -1.6965454 
 1141000    10.013423   -1.7521447  0.047890451   -1.7042543 
 1142000    9.1748757   -1.7523903  0.043879993   -1.7085104 
 1143000    9.9587576   -1.7460312  0.047629007   -1.6984022 
 1144000    8.9673129   -1.7539481  0.042887298   -1.7110608 
 1145000    9.8687876   -1.7564215  0.047198714   -1.7092228 
 1146000    9.8229581    -1.739338  0.046979528   -1.6923585 
 1147000    9.8615493   -1.7380368  0.047164096   -1.6908727 
 1148000    9.8909696   -1.7470372  0.047304802   -1.6997324 
 1149000    7.7110467   -1.7333306  0.036879048   -1.6964515 
 1150000    10.161687   -1.7365115  0.048599543    -1.687912 
 1151000    9.5777139   -1.7518902  0.045806618   -1.7060836 
 1152000    8.9483205   -1.7586125  0.042796465    -1.715816 
 1153000    7.8982986    -1.743604  0.037774603   -1.7058294 
 1154000    10.807406   -1.7401801  0.051687775   -1.6884923 
 1155000    11.276691    -1.716919  0.053932187   -1.6629868 
 1156000      12.8185   -1.6669643  0.061306084   -1.6056582 
 1157000    14.666021   -1.7177251  0.070142083    -1.647583 
 1158000    17.495045   -1.6938764  0.083672248   -1.6102042 
 1159000    17.732218   -1.7192871  0.084806556   -1.6344805 
 1160000     17.06147   -1.6913968   0.08159862   -1.6097982 
 1161000    16.792219    -1.705033  0.080310895   -1.6247222 
 1162000    14.609769    -1.714722  0.069873051    -1.644849 
 1163000    19.098558   -1.6951724   0.09134125   -1.6038311 
 1164000    17.897182   -1.7056168  0.085595517   -1.6200212 
 1165000    15.551241   -1.7220235   0.07437576   -1.6476478 
 1166000    15.053377   -1.6946299  0.071994665   -1.6226352 
 1167000    16.552639    -1.714287   0.07916507    -1.635122 
 1168000    15.768968   -1.7161812  0.075417067   -1.6407641 
 1169000    20.688171   -1.7023899  0.098943771   -1.6034462 
 1170000    14.162492   -1.7154392  0.067733892   -1.6477053 
 1171000    12.860154   -1.6975132  0.061505296   -1.6360079 
 1172000    12.270843    -1.698222  0.058686846   -1.6395351 
 1173000    15.046844   -1.7291905  0.071963419    -1.657227 
 1174000    12.851758   -1.7305264  0.061465145   -1.6690613 
 1175000    13.893852   -1.7223579  0.066449088   -1.6559088 
 1176000    7.7050195   -1.7207646  0.036850222   -1.6839144 
 1177000     14.24347   -1.7369016  0.068121182   -1.6687804 
 1178000     18.44197   -1.7396981  0.088201032   -1.6514971 
 1179000    10.671399   -1.7318018  0.051037305   -1.6807645 
 1180000    9.9732527   -1.7220778  0.047698331   -1.6743794 
 1181000    12.697758   -1.7319848  0.060728618   -1.6712562 
 1182000    12.024408   -1.7338771  0.057508237   -1.6763689 
 1183000    11.290048   -1.7231269   0.05399607   -1.6691308 
 1184000    14.177418   -1.7022641  0.067805277   -1.6344588 
 1185000    15.506877    -1.714505  0.074163581   -1.6403414 
 1186000    17.869616    -1.701019  0.085463679   -1.6155553 
 1187000    17.104624   -1.7085157  0.081805006   -1.6267107 
 1188000    15.047929   -1.7163809  0.071968609   -1.6444123 
 1189000    17.113591   -1.6979805  0.081847894   -1.6161326 
 1190000    17.265655   -1.7035541  0.082575158    -1.620979 
 1191000    14.944764   -1.7174299  0.071475208   -1.6459547 
 1192000    16.272972   -1.7142461  0.077827531   -1.6364186 
 1193000    16.997143    -1.716054  0.081290969    -1.634763 
 1194000    14.476365   -1.6961113  0.069235032   -1.6268762 
 1195000    17.926239   -1.7047263  0.085734486   -1.6189918 
 1196000     15.10061   -1.7219871  0.072220559   -1.6497665 
 1197000    11.484403   -1.7356981  0.054925598   -1.6807725 
 1198000    8.5476298   -1.7626523  0.040880111   -1.7217721 
 1199000    9.2500889   -1.7392327   0.04423971    -1.694993 
 1200000    10.856309   -1.7440702  0.051921658   -1.6921485 
 1201000    8.2376738   -1.7459146  0.039397708   -1.7065169 
 1202000    11.589522   -1.7301566  0.055428341   -1.6747283 
 1203000    10.798363   -1.7387081  0.051644526   -1.6870636 
 1204000    10.855038   -1.7065189  0.051915581   -1.6546033 
 1205000    12.460009   -1.7371646  0.059591554   -1.6775731 
 1206000    15.001571   -1.7413407  0.071746895   -1.6695938 
 1207000    13.587964   -1.7188729  0.064986141   -1.6538868 
 1208000    13.308358   -1.7154467  0.063648891   -1.6517978 
 1209000    11.816994   -1.7319687  0.056516257   -1.6754524 
 1210000    15.423174    -1.736524  0.073763265   -1.6627607 
 1211000    12.289511     -1.70658  0.058776129   -1.6478039 
 1212000    15.232249   -1.6907665  0.072850138   -1.6179164 
 1213000    13.392158   -1.7127646  0.064049675   -1.6487149 
 1214000    14.369378   -1.7377792   0.06872335   -1.6690559 
 1215000     9.073057   -1.7347046  0.043393032   -1.6913116 
 1216000    13.005418   -1.7280633  0.062200044   -1.6658633 
 1217000    11.842877    -1.726395  0.056640043    -1.669755 
 1218000    16.491296   -1.7332358   0.07887169   -1.6543641 
 1219000    12.813003   -1.7376319  0.061279793   -1.6763521 
 1220000     12.17449   -1.7225813  0.058226027   -1.6643553 
 1221000    12.189228    -1.740878   0.05829651   -1.6825815 
 1222000     15.65368   -1.7395476  0.074865688   -1.6646819 
 1223000    12.445973   -1.7529176  0.059524428   -1.6933931 
 1224000    11.306264   -1.7554358  0.054073625   -1.7013622 
 1225000    6.9146269   -1.7634719   0.03307007   -1.7304019 
 1226000    5.0650356   -1.7629755  0.024224168   -1.7387513 
 1227000    7.3926917   -1.7544592  0.035356475   -1.7191027 
 1228000    6.8734303   -1.7660184  0.032873042   -1.7331454 
 1229000    5.9554417   -1.7671436  0.028482647   -1.7386609 
 1230000    5.0538587   -1.7710446  0.024170713   -1.7468739 
 1231000    5.5974381   -1.7666512  0.026770449   -1.7398807 
 1232000    5.3837671    -1.771995  0.025748541   -1.7462465 
 1233000    4.7898994   -1.7688822  0.022908294   -1.7459739 
 1234000    4.6824953   -1.7704679  0.022394621   -1.7480733 
 1235000      4.69677    -1.766429  0.022462891   -1.7439661 
 1236000    5.3086548   -1.7740318  0.025389307   -1.7486425 
 1237000    6.1208072   -1.7676894  0.029273528   -1.7384159 
 1238000     4.616013   -1.7702601  0.022076661   -1.7481835 
 1239000    5.8047688   -1.7687262  0.027762034   -1.7409642 
 1240000    4.6433362   -1.7635253  0.022207338    -1.741318 
 1241000     4.620165    -1.778345  0.022096518   -1.7562485 
 1242000     4.912628   -1.7739297  0.023495259   -1.7504344 
 1243000    4.2470762   -1.7715654  0.020312174   -1.7512532 
 1244000    4.4422814   -1.7727325  0.021245768   -1.7514868 
 1245000     4.189162   -1.7712682  0.020035193    -1.751233 
 1246000    6.0989341   -1.7693896  0.029168917   -1.7402207 
 1247000    4.9579284   -1.7717777  0.023711914   -1.7480657 
 1248000    4.6740235   -1.7778103  0.022354103   -1.7554562 
 1249000    5.1119861   -1.7718867  0.024448715    -1.747438 
 1250000    5.3329931   -1.7668581  0.025505708   -1.7413524 
 1251000    5.6634998   -1.7754956  0.027086398   -1.7484092 
 1252000     5.083254   -1.7733005  0.024311299   -1.7489892 
 1253000    4.8546454   -1.7707761   0.02321795   -1.7475582 
 1254000     5.939245   -1.7652146  0.028405184   -1.7368095 
 1255000    5.1659165   -1.7660634  0.024706644   -1.7413568 
 1256000     6.921992   -1.7670011  0.033105294   -1.7338958 
 1257000    6.3478562   -1.7584444  0.030359418    -1.728085 
 1258000    7.0238726   -1.7543379  0.033592551   -1.7207454 
 1259000    6.8264045   -1.7560496  0.032648135   -1.7234015 
 1260000    6.0206136   -1.7657557  0.028794339   -1.7369614 
 1261000     6.196418   -1.7683203  0.029635146   -1.7386852 
 1262000     6.354915   -1.7471502  0.030393178    -1.716757 
 1263000    7.7229996   -1.7593607  0.036936214   -1.7224245 
 1264000    6.8133523   -1.7647738  0.032585712    -1.732188 
[...]
 4697000    8.2517282   -1.7398371  0.039464924   -1.7003721 
 4698000    7.6771534   -1.7508039  0.036716949    -1.714087 
 4699000    8.9289352   -1.7555417  0.042703752   -1.7128379 
 4700000    7.6374834    -1.757421  0.036527222   -1.7208938 
 4701000    5.7940408   -1.7667556  0.027710726   -1.7390448 
 4702000    8.6487922   -1.7646092  0.041363933   -1.7232453 
 4703000    7.2190323   -1.7599771  0.034525927   -1.7254512 
 4704000    8.1368182   -1.7620568  0.038915353   -1.7231414 
 4705000    6.2013094    -1.763989  0.029658539   -1.7343304 
 4706000    7.8517312   -1.7595858  0.037551889   -1.7220339 
 4707000    8.7656202   -1.7611684  0.041922678   -1.7192457 
 4708000    6.2726281   -1.7584743   0.02999963   -1.7284747 
 4709000    7.1741381   -1.7523624  0.034311215   -1.7180512 
 4710000     8.113257   -1.7674194  0.038802669   -1.7286168 
 4711000    7.4400934   -1.7589286   0.03558318   -1.7233454 
 4712000    7.5243116   -1.7611132  0.035985963   -1.7251273 
 4713000    7.1493557    -1.765403   0.03419269   -1.7312103 
 4714000    6.6666362   -1.7600479  0.031884023   -1.7281638 
 4715000    5.8842812   -1.7647011  0.028142312   -1.7365588 
 4716000    4.8142598   -1.7573554  0.023024801   -1.7343306 
 4717000    7.4542151   -1.7669807  0.035650718   -1.7313299 
 4718000    7.0092727   -1.7642375  0.033522725   -1.7307148 
 4719000    6.8532489    -1.757996  0.032776522   -1.7252195 
 4720000    7.7320953   -1.7663348  0.036979715   -1.7293551 
 4721000    6.0718584   -1.7642354  0.029039424    -1.735196 
 4722000    6.3129886   -1.7599637  0.030192659    -1.729771 
 4723000    5.7034291   -1.7590391  0.027277365   -1.7317617 
 4724000    5.6374243   -1.7520758  0.026961689   -1.7251141 
 4725000    8.5257539   -1.7465181  0.040775487   -1.7057427 
 4726000    11.457957   -1.7516312  0.054799117   -1.6968321 
 4727000    6.8520271   -1.7431843  0.032770679   -1.7104136 
 4728000    8.6375599   -1.7442205  0.041310213   -1.7029103 
 4729000    9.0884811   -1.7557632    0.0434668   -1.7122964 
 4730000    10.491712   -1.7456649  0.050177929    -1.695487 
 4731000     7.841678   -1.7429388  0.037503808    -1.705435 
 4732000    7.7642929   -1.7447285  0.037133704   -1.7075948 
 4733000    9.8003744   -1.7500697  0.046871519   -1.7031982 
 4734000    9.9255901    -1.745311  0.047470379   -1.6978406 
 4735000    9.7508444   -1.7600837  0.046634636   -1.7134491 
 4736000    8.7852657    -1.746188  0.042016634   -1.7041714 
 4737000    8.9325435   -1.7448441  0.042721009   -1.7021231 
 4738000    13.075501   -1.7235109   0.06253522   -1.6609757 
 4739000    12.146214   -1.7142514  0.058090791   -1.6561606 
 4740000    13.149538   -1.7250722  0.062889316   -1.6621829 
 4741000    12.330774   -1.7389151  0.058973473   -1.6799417 
 4742000    10.287854   -1.7249139   0.04920295    -1.675711 
 4743000     11.59237   -1.7227659  0.055441962   -1.6673239 
 4744000    13.095928   -1.7357284  0.062632916   -1.6730955 
 4745000    17.468042   -1.7233996  0.083543102   -1.6398565 
 4746000    11.292674   -1.7276318  0.054008631   -1.6736232 
 4747000    17.805847   -1.7278073  0.085158694   -1.6426486 
 4748000    12.184054    -1.722186  0.058271767   -1.6639142 
 4749000    12.634604   -1.7334645  0.060426576   -1.6730379 
 4750000    14.225756   -1.7248821   0.06803646   -1.6568456 
 4751000    14.060936   -1.6855231  0.067248189   -1.6182749 
 4752000     15.13603   -1.6986412  0.072389963   -1.6262513 
 4753000    14.526433   -1.7284985  0.069474485   -1.6590241 
 4754000    15.708998   -1.7020308  0.075130253   -1.6269006 
 4755000    15.348229   -1.7046896   0.07340483   -1.6312847 
 4756000    18.686365   -1.7113523  0.089369885   -1.6219825 
 4757000    15.165803   -1.7160887  0.072532354   -1.6435564 
 4758000     18.22063   -1.6963647  0.087142445   -1.6092222 
 4759000    16.248012   -1.7058667  0.077708156   -1.6281586 
 4760000    16.548511   -1.7091266  0.079145328   -1.6299812 
 4761000    16.027682   -1.7136943  0.076654399   -1.6370399 
 4762000    18.456261   -1.7092552  0.088269384   -1.6209858 
 4763000    18.927117   -1.7197721   0.09052131   -1.6292508 
 4764000    10.716457   -1.7413887  0.051252801   -1.6901359 
 4765000    11.464765   -1.7308625  0.054831674   -1.6760308 
 4766000    12.191521   -1.7155652  0.058307476   -1.6572578 
 4767000    18.405703   -1.7000518  0.088027584   -1.6120242 
 4768000    13.194351   -1.7220912   0.06310364   -1.6589876 
 4769000     22.03659   -1.7066967   0.10539275   -1.6013039 
 4770000    11.183287    -1.700674  0.053485474   -1.6471886 
 4771000     15.58887   -1.7162884  0.074555727   -1.6417327 
 4772000    14.455867   -1.7020324  0.069136998   -1.6328954 
 4773000    14.425291   -1.7090842  0.068990764   -1.6400934 
 4774000    19.745805   -1.7061601  0.094436786   -1.6117233 
 4775000    17.706896   -1.7128589   0.08468545   -1.6281735 
 4776000    13.572667   -1.7047866  0.064912981   -1.6398736 
 4777000    16.724721   -1.6851762  0.079988075   -1.6051881 
 4778000    18.770499   -1.6959685  0.089772263   -1.6061962 
 4779000    17.000025   -1.7072209  0.081304752   -1.6259161 
 4780000    18.286961   -1.7187225  0.087459685   -1.6312629 
 4781000    13.213739   -1.6965959  0.063196366   -1.6333996 
 4782000    20.733209   -1.7085321  0.099159171   -1.6093729 
 4783000    17.472195   -1.7026883  0.083562962   -1.6191254 
 4784000     11.70946   -1.6988392  0.056001961   -1.6428373 
 4785000     17.45809   -1.6983451  0.083495503   -1.6148496 
 4786000    15.962158    -1.685191  0.076341022   -1.6088499 
 4787000    17.079021    -1.705169  0.081682561   -1.6234865 
 4788000    12.998344   -1.6907529  0.062166207   -1.6285867 
 4789000     15.74456   -1.7167249  0.075300331   -1.6414245 
 4790000    17.971997   -1.6969106  0.085953329   -1.6109572 
 4791000    17.896137   -1.7107849  0.085590518   -1.6251943 
 4792000     15.11955   -1.6965739  0.072311142   -1.6242627 
 4793000    16.104002   -1.7145673  0.077019408   -1.6375479 
 4794000    19.018717   -1.6976994  0.090959399     -1.60674 
 4795000    14.483871   -1.7075054  0.069270928   -1.6382345 
 4796000    14.171381   -1.7038594  0.067776407    -1.636083 
 4797000    17.713928   -1.7047628   0.08471908   -1.6200437 
 4798000    16.338308   -1.6967543  0.078140004   -1.6186143 
 4799000    16.351699   -1.7412393  0.078204049   -1.6630353 
 4800000    10.796265   -1.7126682   0.05163449   -1.6610337 
 4801000    10.263722   -1.7376901  0.049087538   -1.6886026 
 4802000    10.474069   -1.7418457  0.050093549   -1.6917521 
 4803000    12.645872   -1.7170521   0.06048047   -1.6565716 
 4804000     16.18958   -1.6827794  0.077428697   -1.6053507 
 4805000    12.161626    -1.721581  0.058164499   -1.6634165 
 4806000    20.481746   -1.7244494  0.097956516   -1.6264929 
 4807000    15.366059   -1.6828816  0.073490103   -1.6093915 
 4808000    14.468871   -1.7271119  0.069199187   -1.6579128 
 4809000    17.086051   -1.6909282  0.081716179    -1.609212 
 4810000    13.778212   -1.7180374  0.065896024   -1.6521413 
 4811000    15.637251   -1.6743983  0.074787113   -1.5996111 
 4812000    16.064361   -1.7182867  0.076829822   -1.6414569 
 4813000    16.379613   -1.7108489  0.078337552   -1.6325114 
 4814000     15.36031   -1.6599549  0.073462609   -1.5864923 
 4815000     12.71601   -1.7463997  0.060815911   -1.6855838 
 4816000    16.670419    -1.707503  0.079728368   -1.6277746 
 4817000    12.631885   -1.6818064  0.060413573   -1.6213928 
 4818000    14.785997   -1.7051539  0.070715883    -1.634438 
 4819000    13.643263   -1.7171458  0.065250618   -1.6518952 
 4820000    12.896494    -1.695986  0.061679099   -1.6343069 
 4821000    13.209109   -1.7050763  0.063174221   -1.6419021 
 4822000    19.608918   -1.7292665  0.093782109   -1.6354844 
 4823000    16.751197   -1.7031013  0.080114699   -1.6229866 
 4824000     17.38435   -1.7094562  0.083142833   -1.6263134 
 4825000    17.014571   -1.7148492  0.081374318   -1.6334749 
 4826000    13.671556   -1.7058042  0.065385931   -1.6404182 
 4827000    16.330006   -1.6988661  0.078100301   -1.6207658 
 4828000    12.048639    -1.705338  0.057624125   -1.6477139 
 4829000    15.478659   -1.6987655  0.074028625   -1.6247369 
 4830000    15.526738   -1.7080502  0.074258569   -1.6337916 
 4831000    16.775794   -1.6896362   0.08023234   -1.6094038 
 4832000    13.988028   -1.6925029  0.066899497   -1.6256034 
 4833000    17.269749   -1.7138963  0.082594739   -1.6313016 
 4834000    18.968002   -1.7048922  0.090716849   -1.6141753 
 4835000    16.591653   -1.6824903  0.079351658   -1.6031386 
 4836000    15.271506    -1.745178  0.073037893   -1.6721401 
 4837000    15.851503   -1.6777509  0.075811799   -1.6019391 
 4838000    15.340774   -1.7044071  0.073369175   -1.6310379 
 4839000    13.139519   -1.6974578  0.062841396   -1.6346164 
 4840000    11.900126   -1.7168336  0.056913845   -1.6599197 
 4841000    14.198157   -1.6894673  0.067904464   -1.6215628 
 4842000    17.763019    -1.706332  0.084953866   -1.6213781 
 4843000    16.307777   -1.7136952  0.077993987   -1.6357012 
 4844000    13.107649   -1.7232258  0.062688976   -1.6605368 
 4845000    12.188245   -1.7380698  0.058291812    -1.679778 
 4846000    16.028857    -1.736549  0.076660017   -1.6598889 
 4847000    12.948606   -1.7167783   0.06192833   -1.6548499 
 4848000    14.120065   -1.7318252  0.067530979   -1.6642943 
 4849000    12.575272   -1.7320485  0.060142814   -1.6719057 
 4850000    10.632347   -1.7538645  0.050850533    -1.703014 
 4851000    7.8753593   -1.7445689  0.037664893    -1.706904 
 4852000    9.6364129   -1.7415419  0.046087353   -1.6954546 
 4853000    10.778692   -1.7500782  0.051550447   -1.6985278 
 4854000     9.192116   -1.7439833  0.043962447   -1.7000209 
 4855000    11.177125   -1.7443473     0.053456   -1.6908913 
 4856000    8.5474978    -1.757111   0.04087948   -1.7162315 
 4857000    10.806739   -1.7370879  0.051684585   -1.6854033 
 4858000    8.8631089   -1.7444412  0.042388929   -1.7020523 
 4859000    9.1640802   -1.7493126  0.043828362   -1.7054843 
 4860000    8.1779553   -1.7568206  0.039112096   -1.7177085 
 4861000    9.2660542   -1.7392042  0.044316066   -1.6948881 
 4862000    10.664107   -1.7518813  0.051002431   -1.7008788 
 4863000    7.7589431   -1.7512115  0.037108118   -1.7141034 
 4864000    8.8238966   -1.7492724  0.042201392    -1.707071 
 4865000    8.4357925   -1.7502607  0.040345235   -1.7099155 
 4866000    9.1563379   -1.7536074  0.043791334   -1.7098161 
 4867000    6.4603453   -1.7514739  0.030897411   -1.7205765 
 4868000    7.2105526    -1.740058  0.034485372   -1.7055726 
 4869000    9.1106718   -1.7546776   0.04357293   -1.7111047 
 4870000    9.3262891   -1.7473422  0.044604147   -1.7027381 
 4871000    10.337771   -1.7496783  0.049441687   -1.7002367 
 4872000    7.8750083   -1.7315322  0.037663215    -1.693869 
 4873000    9.9122676   -1.7565371  0.047406663   -1.7091305 
 4874000    9.1071302   -1.7582269  0.043555992   -1.7146709 
 4875000    8.4736952   -1.7498504  0.040526509   -1.7093238 
 4876000    12.729405   -1.7477645  0.060879976   -1.6868845 
 4877000    7.5991501    -1.751107  0.036343888   -1.7147631 
 4878000    8.6601974   -1.7515675   0.04141848    -1.710149 
 4879000    9.1941729   -1.7431652  0.043972284   -1.6991929 
 4880000     14.27676   -1.7523458  0.068280393   -1.6840654 
 4881000    9.4477364   -1.7614201  0.045184984   -1.7162351 
 4882000    10.829082   -1.7374142   0.05179144   -1.6856228 
 4883000    9.6956394   -1.7437418  0.046370611   -1.6973712 
 4884000    12.155908   -1.7355238  0.058137152   -1.6773867 
 4885000    9.1475374   -1.7495237  0.043749245   -1.7057745 
 4886000    11.025852   -1.7555108  0.052732518   -1.7027783 
 4887000     7.460885   -1.7367949  0.035682618   -1.7011122 
 4888000    8.0582862   -1.7559677  0.038539764    -1.717428 
 4889000    6.8013992   -1.7715547  0.032528544   -1.7390262 
 4890000    6.3803261   -1.7658466   0.03051471   -1.7353319 
 4891000    6.5880479   -1.7470956  0.031508165   -1.7155875 
 4892000    6.8665361   -1.7548681   0.03284007   -1.7220281 
 4893000    6.2562928   -1.7567247  0.029921505   -1.7268032 
 4894000    6.4523021   -1.7676173  0.030858944   -1.7367584 
 4895000    6.1762794   -1.7639894   0.02953883   -1.7344506 
 4896000     4.388142   -1.7713057  0.020986839   -1.7503189 
 4897000    5.9194805    -1.771228  0.028310658   -1.7429173 
 4898000    4.9765596   -1.7629376   0.02380102   -1.7391366 
 4899000    6.2472193   -1.7643075   0.02987811   -1.7344294 
 4900000    6.4371741   -1.7662179  0.030786592   -1.7354313 
 4901000    7.1885666   -1.7597793  0.034380221   -1.7253991 
 4902000    6.6416294   -1.7607373  0.031764425   -1.7289729 
 4903000     7.369547   -1.7710379  0.035245782   -1.7357921 
 4904000     4.173486   -1.7738891   0.01996022   -1.7539289 
 4905000    5.8270236   -1.7703389  0.027868471   -1.7424704 
 4906000    4.0809131   -1.7716937  0.019517479   -1.7521762 
 4907000    5.2061092   -1.7628971   0.02489887   -1.7379983 
 4908000    4.3975344   -1.7808463  0.021031759   -1.7598145 
 4909000    4.1688092   -1.7693591  0.019937853   -1.7494212 
 4910000    6.2268376    -1.770218  0.029780632   -1.7404374 
 4911000    5.4775585   -1.7650278   0.02619711   -1.7388307 
 4912000    7.6558275   -1.7581139  0.036614955    -1.721499 
 4913000    6.5664057   -1.7701301  0.031404658   -1.7387255 
 4914000    6.2862135   -1.7617065  0.030064604   -1.7316419 
 4915000    6.3407047    -1.756619  0.030325215   -1.7262937 
 4916000    7.5329191   -1.7704245   0.03602713   -1.7343974 
 4917000    6.7160904   -1.7603852  0.032120544   -1.7282646 
 4918000    7.3785643   -1.7678213  0.035288909   -1.7325324 
 4919000    5.8517218   -1.7719504  0.027986593   -1.7439638 
 4920000    4.6239993   -1.7751434  0.022114856   -1.7530286 
 4921000    5.5560998   -1.7778235  0.026572744   -1.7512507 
 4922000    6.0495699   -1.7853876  0.028932827   -1.7564547 
 4923000    3.0132999   -1.7775609  0.014411485   -1.7631494 
 4924000    4.8909922   -1.7837866  0.023391783   -1.7603949 
 4925000    4.0991223   -1.7783745  0.019604566   -1.7587699 
 4926000    3.4498942   -1.7756705  0.016499551   -1.7591709 
 4927000    4.3325712   -1.7785141  0.020721065    -1.757793 
 4928000    3.7731915     -1.78237  0.018045761   -1.7643242 
 4929000    4.1395529   -1.7775329  0.019797931   -1.7577349 
 4930000    4.1725769   -1.7806933  0.019955872   -1.7607375 
 4931000    4.1205206   -1.7746583  0.019706906   -1.7549514 
 4932000     3.230255   -1.7790901  0.015449099    -1.763641 
 4933000    3.0033615   -1.7817961  0.014363953   -1.7674321 
 4934000    3.3089401    -1.777566  0.015825421   -1.7617405 
 4935000    4.1130317   -1.7777989   0.01967109   -1.7581278 
 4936000    3.4836409   -1.7815257  0.016660949   -1.7648648 
 4937000    4.3589388   -1.7764351  0.020847171    -1.755588 
 4938000    3.4013891   -1.7820398   0.01626757   -1.7657722 
 4939000    3.8634557   -1.7832264  0.018477461    -1.764749 
 4940000    3.4605878   -1.7805556  0.016550695   -1.7640049 
 4941000     3.689388   -1.7748466  0.017644961   -1.7572016 
 4942000    3.8261573   -1.7820418  0.018299077   -1.7637428 
 4943000    3.9179788   -1.7791296  0.018738225   -1.7603913 
 4944000      4.29659   -1.7798362   0.02054898   -1.7592872 
 4945000    3.1184204   -1.7789655  0.014914237   -1.7640512 
 4946000     3.732389   -1.7780241  0.017850618   -1.7601734 
 4947000     3.229574   -1.7800049  0.015445842   -1.7645591 
 4948000     3.441281   -1.7778205  0.016458358   -1.7613622 
 4949000    3.3105195   -1.7808171  0.015832974   -1.7649842 
 4950000    2.6527216   -1.7826941  0.012686974   -1.7700071 
 4951000    3.5183929   -1.7786888  0.016827155   -1.7618616 
 4952000    3.9712969   -1.7784472  0.018993225    -1.759454 
 4953000    3.4405341    -1.779299  0.016454786   -1.7628443 
 4954000    3.8010234   -1.7822169  0.018178871    -1.764038 
 4955000    3.5655766   -1.7821484  0.017052817   -1.7650956 
 4956000    3.2719099   -1.7732448  0.015648319   -1.7575964 
 4957000    3.7348495   -1.7792948  0.017862386   -1.7614324 
 4958000    3.5816104    -1.780187  0.017129501   -1.7630575 
 4959000    3.0704715   -1.7798586  0.014684915   -1.7651736 
 4960000    3.8040013   -1.7790768  0.018193113   -1.7608837 
 4961000    5.0463662   -1.7697832  0.024134879   -1.7456483 
 4962000    4.9560678   -1.7724108  0.023703016   -1.7487078 
 4963000    3.1084676   -1.7825502  0.014866636   -1.7676836 
 4964000    3.1891486   -1.7840898  0.015252503   -1.7688373 
 4965000    3.8719018   -1.7773158  0.018517856    -1.758798 
 4966000    3.3810537   -1.7774669  0.016170313   -1.7612966 
 4967000    4.2314827   -1.7741163  0.020237597   -1.7538787 
 4968000    3.7857748   -1.7810434  0.018105943   -1.7629374 
 4969000    3.3698543   -1.7832416  0.016116751   -1.7671248 
 4970000    3.8993035   -1.7754168  0.018648908   -1.7567679 
 4971000    4.1673839   -1.7740824  0.019931036   -1.7541513 
 4972000    3.5083993   -1.7811637  0.016779359   -1.7643844 
 4973000    2.3951363    -1.782916   0.01145504    -1.771461 
 4974000    2.6667761   -1.7864157  0.012754191   -1.7736615 
 4975000    1.8159668   -1.7872683 0.0086850887   -1.7785832 
 4976000    2.1783912   -1.7867687  0.010418429   -1.7763503 
 4977000     2.152219   -1.7881106  0.010293257   -1.7778173 
 4978000    2.2515212   -1.7929749  0.010768182   -1.7822067 
 4979000    2.2494586   -1.7903861  0.010758318   -1.7796278 
 4980000    2.3977013   -1.7908438  0.011467307   -1.7793765 
 4981000     2.196926   -1.7840168  0.010507074   -1.7735097 
 4982000    2.2272479   -1.7871621  0.010652092     -1.77651 
 4983000    2.1230846   -1.7917183  0.010153918   -1.7815644 
 4984000    1.9363387   -1.7898689 0.0092607826   -1.7806081 
 4985000    3.0649576   -1.7921714  0.014658544   -1.7775128 
 4986000    2.0713821   -1.7869532 0.0099066444   -1.7770466 
 4987000    2.5271761   -1.7882102  0.012086536   -1.7761236 
 4988000    1.8284493   -1.7870312  0.008744788   -1.7782865 
 4989000    2.1067738   -1.7879263   0.01007591   -1.7778504 
 4990000    2.6849569   -1.7849838  0.012841143   -1.7721427 
 4991000    3.3453352   -1.7868976  0.015999485   -1.7708981 
 4992000    1.9228592   -1.7873159 0.0091963153   -1.7781196 
 4993000    2.2500746   -1.7879211  0.010761264   -1.7771599 
 4994000    2.0179189    -1.790013 0.0096509502    -1.780362 
 4995000    1.8021094   -1.7854658 0.0086188139    -1.776847 
 4996000    1.9940686   -1.7869159 0.0095368833    -1.777379 
 4997000    1.9658545   -1.7884495 0.0094019458   -1.7790475 
 4998000    1.6774093   -1.7906131 0.0080224204   -1.7825906 
 4999000    2.2829299   -1.7908559  0.010918398   -1.7799375 
 5000000    2.6808932   -1.7901958  0.012821708   -1.7773741 
Loop time of 1276.16 on 1 procs for 5000000 steps with 38 atoms

Performance: 338.516 ns/day, 0.071 hours/ns, 3918.010 timesteps/s
97.6% CPU use with 1 MPI tasks x no OpenMP threads

MPI task timing breakdown:
Section |  min time  |  avg time  |  max time  |%varavg| %total
---------------------------------------------------------------
Pair    | 1206.1     | 1206.1     | 1206.1     |   0.0 | 94.51
Neigh   | 6.5327e-05 | 6.5327e-05 | 6.5327e-05 |   0.0 |  0.00
Comm    | 1.0983     | 1.0983     | 1.0983     |   0.0 |  0.09
Output  | 0.23509    | 0.23509    | 0.23509    |   0.0 |  0.02
Modify  | 16.611     | 16.611     | 16.611     |   0.0 |  1.30
Other   |            | 52.08      |            |       |  4.08

Nlocal:        38.0000 ave          38 max          38 min
Histogram: 1 0 0 0 0 0 0 0 0 0
Nghost:        0.00000 ave           0 max           0 min
Histogram: 1 0 0 0 0 0 0 0 0 0
Neighs:        0.00000 ave           0 max           0 min
Histogram: 1 0 0 0 0 0 0 0 0 0

Total # of neighbors = 0
Ave neighs/atom = 0.0000000
Neighbor list builds = 205
Dangerous builds = 0
neighbor            0.3        bin


Total wall time: 0:21:16
