LAMMPS (29 Oct 2020)
Processor partition = 0
package gpu 1
# Initialization
units            metal
dimension        3
boundary         p p p
atom_style       atomic

#
#  region for the wall
#

region rs sphere 0 0 0 12.66

read_data        input.dat
Reading data file ...
  orthogonal box = (-50.000000 -50.000000 -50.000000) to (50.000000 50.000000 50.000000)
  1 by 1 by 1 MPI processor grid
  reading atoms ...
  38 atoms
  read_data CPU = 0.010 seconds

mass 1 39.948

pair_style lj/cut 8.5
pair_coeff 1 1 0.01042 3.405  8.5
variable i equal part

variable t world  2.00    2.60    3.64    5    6.63    9.12   12.07   16   21.97   26.83   32.76   40.00
velocity        all        create        $t        293288
velocity        all        create        2.00        293288
velocity all zero linear
velocity all zero angular
fix        1        all        nvt        temp        $t        $t        0.1
fix        1        all        nvt        temp        2.00        $t        0.1
fix        1        all        nvt        temp        2.00        2.00        0.1
fix  2 all wall/region rs harmonic 2.0 0.0 0.4


thermo         1000
thermo_style        custom        step  temp     pe ke etotal
thermo_modify       line        one

restart 5000000 restart.*
dump         2 all xyz 10000 structure_$i.xyz
dump         2 all xyz 10000 structure_0.xyz
dump_modify  2 element "Ar" sort id

temper 5000000 1000 $t 1 3678 3490
temper 5000000 1000 2.00 1 3678 3490
Per MPI rank memory allocation (min/avg/max) = 3.436 | 3.436 | 3.436 Mbytes
Step Temp PotEng KinEng TotEng 
       0    1.9843545   -1.7950808 0.0094904241   -1.7855903 
    1000    2.2210927   -1.7896766  0.010622654    -1.779054 
    2000    2.1269161   -1.7912316  0.010172243   -1.7810593 
    3000    2.1154325   -1.7882512  0.010117321   -1.7781339 
    4000    2.0030819   -1.7908615 0.0095799903   -1.7812815 
    5000    2.1045377   -1.7857585  0.010065216   -1.7756933 
    6000    1.7188038    -1.790814 0.0082203948   -1.7825936 
    7000    1.7988169   -1.7866995 0.0086030674   -1.7780964 
    8000    1.9929747   -1.7909574 0.0095316515   -1.7814258 
    9000    1.2927185   -1.7874384 0.0061825881   -1.7812558 
   10000    1.8965863   -1.7901887 0.0090706618   -1.7811181 
   11000    1.6019411   -1.7900347 0.0076614842   -1.7823732 
   12000     2.099899   -1.7893118   0.01004303   -1.7792688 
   13000    1.9900944   -1.7897766 0.0095178759   -1.7802588 
   14000     1.662716   -1.7878489 0.0079521476   -1.7798967 
   15000    2.2391123   -1.7860108  0.010708835    -1.775302 
   16000     1.963224   -1.7870836  0.009389365   -1.7776942 
   17000    2.4363078   -1.7915428  0.011651948   -1.7798909 
   18000    1.9661954   -1.7917716 0.0094035762    -1.782368 
   19000    2.2531527   -1.7867756  0.010775985   -1.7759996 
   20000    2.2892396   -1.7857995  0.010948575   -1.7748509 
   21000    2.3992175   -1.7881402  0.011474559   -1.7766656 
   22000    1.8764224   -1.7897026 0.0089742254   -1.7807284 
   23000    1.7893701   -1.7916606 0.0085578866   -1.7831027 
   24000     1.809613   -1.7876528 0.0086547011   -1.7789981 
   25000    2.0168461   -1.7905184 0.0096458192   -1.7808726 
   26000    2.1280939   -1.7884896  0.010177876   -1.7783118 
   27000    1.7816346   -1.7848235 0.0085208906   -1.7763026 
   28000    2.6885423   -1.7813202  0.012858291   -1.7684619 
   29000    2.9304387   -1.7844959   0.01401519   -1.7704807 
   30000    2.3879964   -1.7852759  0.011420892    -1.773855 
   31000    2.8986966   -1.7842956   0.01386338   -1.7704322 
   32000    2.5720304   -1.7834748  0.012301058   -1.7711738 
   33000    2.9342376    -1.785974  0.014033359   -1.7719406 
   34000    2.8404543    -1.782981  0.013584829   -1.7693961 
   35000     3.065367   -1.7860033  0.014660502   -1.7713428 
   36000    2.5971832   -1.7851803  0.012421354   -1.7727589 
   37000    2.8851393   -1.7817046   0.01379854   -1.7679061 
   38000    2.5251353   -1.7839426  0.012076776   -1.7718658 
   39000    2.5883324   -1.7875623  0.012379024   -1.7751833 
   40000    2.4005758   -1.7868973  0.011481055   -1.7754162 
   41000    2.6649768   -1.7878073  0.012745586   -1.7750617 
   42000    2.1736302   -1.7845506  0.010395659    -1.774155 
   43000    2.3929133   -1.7850237  0.011444408   -1.7735793 
   44000    2.4402305   -1.7864126  0.011670708   -1.7747419 
   45000    2.6988027   -1.7823067  0.012907362   -1.7693994 
   46000      2.58744   -1.7874263  0.012374756   -1.7750515 
   47000    2.1502228   -1.7850326   0.01028371   -1.7747489 
   48000    2.4639534       -1.785  0.011784166   -1.7732159 
   49000    2.8946035   -1.7835359  0.013843804   -1.7696921 
   50000    2.4184479   -1.7839619   0.01156653   -1.7723954 
   51000    2.5657663   -1.7839245  0.012271099   -1.7716534 
   52000    2.4443862   -1.7830019  0.011690583   -1.7713113 
   53000     2.431208   -1.7859992  0.011627557   -1.7743717 
   54000     2.423535   -1.7816927   0.01159086   -1.7701018 
   55000    2.6650437   -1.7881669  0.012745905    -1.775421 
   56000    1.9635596   -1.7857578 0.0093909699   -1.7763668 
   57000    2.6309002   -1.7861504   0.01258261   -1.7735678 
   58000    1.9064934   -1.7861032 0.0091180437   -1.7769851 
   59000    2.2428987   -1.7830168  0.010726944   -1.7722898 
   60000    2.0574831   -1.7843246  0.009840171   -1.7744844 
   61000    2.2803706   -1.7869693  0.010906158   -1.7760632 
   62000    2.7891608   -1.7851905  0.013339511   -1.7718509 
   63000    2.2273408   -1.7879159  0.010652537   -1.7772634 
   64000    3.2293596   -1.7868986  0.015444817   -1.7714538 
   65000     3.202944   -1.7843031  0.015318481   -1.7689847 
   66000    2.7390684   -1.7833755  0.013099938   -1.7702755 
   67000    2.7285743   -1.7832852  0.013049749   -1.7702355 
   68000    2.8281427    -1.783661  0.013525947   -1.7701351 
   69000    2.2170389   -1.7843518  0.010603266   -1.7737486 
   70000    2.8170213   -1.7865138  0.013472757    -1.773041 
   71000    2.2261503   -1.7866228  0.010646843   -1.7759759 
   72000    2.2842142   -1.7834527  0.010924541   -1.7725282 
   73000    2.9053837   -1.7855435  0.013895362   -1.7716481 
   74000    2.0348913   -1.7908454 0.0097321229   -1.7811133 
   75000    1.8775393   -1.7893989 0.0089795673   -1.7804194 
   76000    2.0058957    -1.787149 0.0095934476   -1.7775555 
   77000     1.843409   -1.7869061 0.0088163344   -1.7780897 
   78000    2.0233173   -1.7863113 0.0096767687   -1.7766345 
   79000    2.2920682   -1.7849099  0.010962104   -1.7739478 
   80000    2.1229159   -1.7865074  0.010153112   -1.7763543 
   81000    2.4256877   -1.7885991  0.011601156   -1.7769979 
   82000    2.4664981   -1.7871356  0.011796336   -1.7753393 
   83000    2.5322474   -1.7819169   0.01211079   -1.7698061 
   84000    3.1555228   -1.7852795  0.015091683   -1.7701878 
   85000    2.7953978   -1.7824248   0.01336934   -1.7690554 
   86000    2.6711558   -1.7798896  0.012775137   -1.7671145 
   87000    2.5678005   -1.7866155  0.012280828   -1.7743347 
   88000    3.1900939     -1.78224  0.015257024    -1.766983 
   89000    2.6585376   -1.7821292  0.012714789   -1.7694145 
   90000    2.6865642   -1.7863733   0.01284883   -1.7735244 
   91000    2.4541738   -1.7814132  0.011737394   -1.7696758 
   92000    3.5924128   -1.7823756  0.017181164   -1.7651945 
   93000    2.2133109     -1.78882  0.010585437   -1.7782346 
   94000    1.9893665   -1.7854332 0.0095143949   -1.7759188 
   95000    1.8833675   -1.7885494  0.009007441    -1.779542 
   96000    2.3045867   -1.7907055  0.011021975   -1.7796836 
   97000    2.1910269   -1.7879878  0.010478861   -1.7775089 
   98000    2.3000065   -1.7900713   0.01100007   -1.7790712 
   99000    2.3783388   -1.7914418  0.011374703   -1.7800671 
  100000    2.0041238    -1.789037 0.0095849733    -1.779452 
  101000    2.0435236   -1.7882055 0.0097734078   -1.7784321 
  102000    1.7147522   -1.7891593 0.0082010175   -1.7809582 
  103000    1.8511179   -1.7909217 0.0088532033   -1.7820685 
  104000    1.9462552   -1.7891593 0.0093082096   -1.7798511 
  105000    2.0586734   -1.7882828 0.0098458636    -1.778437 
  106000    1.9748753   -1.7892729 0.0094450889   -1.7798278 
  107000    2.0163205   -1.7870988 0.0096433054   -1.7774554 
  108000    2.2286691   -1.7887452   0.01065889   -1.7780863 
  109000    2.7003675    -1.786177  0.012914846   -1.7732622 
  110000    3.0366649   -1.7850521   0.01452323   -1.7705288 
  111000    2.0336184   -1.7857053 0.0097260349   -1.7759793 
  112000    2.3125483   -1.7853877  0.011060052   -1.7743276 
  113000    2.9261624   -1.7844133  0.013994738   -1.7704185 
  114000    2.1855104   -1.7848168  0.010452477   -1.7743644 
  115000    2.9067438   -1.7835329  0.013901867    -1.769631 
  116000    2.0269591   -1.7890021 0.0096941861   -1.7793079 
  117000    1.4421257   -1.7906622 0.0068971468   -1.7837651 
  118000    2.3854794   -1.7902285  0.011408854   -1.7788196 
  119000    1.8857619   -1.7900158 0.0090188926   -1.7809969 
  120000    1.9619937   -1.7885954 0.0093834809   -1.7792119 
  121000    2.7364654   -1.7878505  0.013087489    -1.774763 
  122000    2.6012242   -1.7901824  0.012440681   -1.7777418 
  123000    1.8406953    -1.790174  0.008803356   -1.7813707 
  124000    1.8755728   -1.7904781  0.008970162    -1.781508 
  125000    2.1253625   -1.7906825  0.010164813   -1.7805176 
  126000    2.0635121    -1.786194 0.0098690051    -1.776325 
  127000    1.7870169   -1.7890761 0.0085466326   -1.7805295 
  128000     2.049662    -1.789488 0.0098027656   -1.7796853 
  129000    2.0328432   -1.7898605 0.0097223273   -1.7801382 
  130000    1.7504782   -1.7859538 0.0083718813   -1.7775819 
  131000    1.5665287   -1.7880728   0.00749212   -1.7805807 
  132000    2.4990532    -1.785111  0.011952035   -1.7731589 
  133000     2.150617   -1.7901107  0.010285595   -1.7798251 
  134000    2.4678064   -1.7908272  0.011802594   -1.7790246 
  135000    2.4377595   -1.7902179  0.011658891    -1.778559 
  136000    1.6955731   -1.7868945 0.0081092908   -1.7787852 
  137000    2.2974415   -1.7894991  0.010987802   -1.7785113 
  138000    2.3892212   -1.7883437   0.01142675   -1.7769169 
  139000    1.8476409   -1.7847764 0.0088365744   -1.7759399 
  140000    2.0906971     -1.78933 0.0099990212    -1.779331 
  141000    1.9459939   -1.7871076 0.0093069598   -1.7778006 
  142000    2.1575792   -1.7851788  0.010318893     -1.77486 
  143000    2.0513435   -1.7890158 0.0098108076    -1.779205 
  144000    1.5510733   -1.7870868 0.0074182024   -1.7796686 
  145000    2.1304962   -1.7879578  0.010189365   -1.7777685 
  146000    1.8187655   -1.7879216 0.0086984742   -1.7792232 
  147000    2.3322448   -1.7859614  0.011154253   -1.7748072 
  148000    1.5056872   -1.7903781 0.0072011378    -1.783177 
  149000    2.1367773   -1.7871774  0.010219405    -1.776958 
  150000    2.9141469   -1.7816443  0.013937273    -1.767707 
  151000     2.546778   -1.7882841  0.012180285   -1.7761038 
  152000    2.5355906   -1.7864159   0.01212678   -1.7742891 
  153000    2.7076907   -1.7826501   0.01294987   -1.7697002 
  154000    3.1136237   -1.7858949  0.014891296   -1.7710036 
  155000    2.8049686   -1.7836563  0.013415114   -1.7702412 
  156000    2.2482858   -1.7838614  0.010752709   -1.7731087 
  157000     2.963513   -1.7860824  0.014173372    -1.771909 
  158000    2.0054178   -1.7901355 0.0095911619   -1.7805443 
  159000    1.8445214   -1.7853387 0.0088216547    -1.776517 
  160000    2.1096704   -1.7851588  0.010089763    -1.775069 
  161000    2.6989353   -1.7817278  0.012907996   -1.7688198 
  162000    2.3622909   -1.7831762  0.011297952   -1.7718782 
  163000    2.7344731   -1.7810929   0.01307796   -1.7680149 
  164000    2.4985429   -1.7841794  0.011949595   -1.7722298 
  165000    2.3225975   -1.7859504  0.011108114   -1.7748423 
  166000    1.8099305   -1.7890554 0.0086562195   -1.7803992 
  167000    2.1381506   -1.7868218  0.010225973   -1.7765958 
  168000    1.9996273   -1.7884176 0.0095634682   -1.7788542 
  169000    2.4391541    -1.788069   0.01166556   -1.7764035 
  170000     1.516202   -1.7877038 0.0072514263   -1.7804523 
  171000    2.0531174   -1.7891922 0.0098192915   -1.7793729 
  172000    2.0646229   -1.7888852 0.0098743176   -1.7790109 
  173000    2.0777006   -1.7887397 0.0099368634   -1.7788028 
  174000    3.2417788   -1.7856313  0.015504214   -1.7701271 
  175000     2.618888   -1.7889827   0.01252516   -1.7764576 
  176000    2.3018619   -1.7850914  0.011008943   -1.7740825 
  177000    2.0329446   -1.7894161 0.0097228126   -1.7796932 
  178000    2.1406876   -1.7856395  0.010238107   -1.7754014 
  179000     1.794527   -1.7873175 0.0085825503   -1.7787349 
  180000    2.3306369   -1.7865081  0.011146563   -1.7753616 
  181000    1.5573958   -1.7878299 0.0074484408   -1.7803815 
  182000    2.2504738   -1.7886762  0.010763173    -1.777913 
  183000    2.2201094   -1.7896739  0.010617952    -1.779056 
  184000    1.9659669   -1.7876871 0.0094024831   -1.7782846 
  185000    1.9301892   -1.7904154 0.0092313716   -1.7811841 
  186000    2.1822922   -1.7853493  0.010437086   -1.7749122 
  187000    1.8873419   -1.7902545  0.009026449    -1.781228 
  188000    2.7125774   -1.7849777  0.012973242   -1.7720045 
  189000    1.9344575   -1.7918875 0.0092517853   -1.7826357 
  190000    2.1472389   -1.7883227  0.010269439   -1.7780533 
  191000     1.995192   -1.7869546  0.009542256   -1.7774124 
  192000    3.4538165   -1.7851371   0.01651831   -1.7686187 
  193000    3.0279256   -1.7832194  0.014481434    -1.768738 
  194000    2.4484147    -1.787172   0.01170985   -1.7754622 
  195000    2.6791501   -1.7867611  0.012813371   -1.7739478 
  196000    2.7050782    -1.785499  0.012937376   -1.7725617 
  197000    2.1160451   -1.7841838  0.010120251   -1.7740636 
  198000    2.6508525   -1.7815781  0.012678034   -1.7689001 
  199000    2.9674133   -1.7878642  0.014192026   -1.7736722 
  200000    3.4351145   -1.7836497  0.016428866   -1.7672209 
  201000    1.9172127   -1.7880881 0.0091693102   -1.7789188 
  202000    2.3654434   -1.7864207  0.011313029   -1.7751077 
  203000    1.5228702   -1.7866014 0.0072833178   -1.7793181 
  204000    2.0161886   -1.7873738 0.0096426747   -1.7777312 
  205000    1.7502475   -1.7858639 0.0083707782   -1.7774931 
  206000    1.9002504   -1.7883958 0.0090881855   -1.7793076 
  207000    2.6591148   -1.7834704   0.01271755   -1.7707528 
  208000    2.4672105   -1.7828334  0.011799744   -1.7710336 
  209000     2.376676   -1.7840082  0.011366751   -1.7726414 
  210000    2.9074032   -1.7852645   0.01390502   -1.7713595 
  211000    1.9889321   -1.7879891 0.0095123169   -1.7784768 
  212000    2.5140649   -1.7895364   0.01202383   -1.7775125 
  213000    1.9476381   -1.7880549 0.0093148234     -1.77874 
  214000    1.5407154   -1.7893935 0.0073686646   -1.7820248 
  215000    2.0141837   -1.7881577  0.009633086   -1.7785246 
  216000    1.9892805    -1.789613 0.0095139832    -1.780099 
  217000    2.2703301   -1.7902898  0.010858138   -1.7794317 
  218000      1.49019   -1.7912902 0.0071270204   -1.7841632 
  219000    1.9757255   -1.7893369 0.0094491549   -1.7798878 
  220000     1.772422   -1.7872822 0.0084768304   -1.7788054 
  221000    2.3517218   -1.7884912  0.011247404   -1.7772438 
  222000    1.6400743   -1.7874557  0.007843861   -1.7796118 
  223000    2.0473548    -1.787237 0.0097917311   -1.7774453 
  224000    2.4545516   -1.7892761  0.011739201   -1.7775369 
  225000    2.1912404   -1.7877974  0.010479882   -1.7773175 
  226000      1.81129    -1.786416 0.0086627213   -1.7777532 
  227000    2.0932698   -1.7892052  0.010011325   -1.7791938 
  228000    2.2474383   -1.7889874  0.010748655   -1.7782388 
  229000     2.136334   -1.7887665  0.010217285   -1.7785492 
  230000    2.1477179   -1.7887161   0.01027173   -1.7784444 
  231000    1.9735386   -1.7898522 0.0094386957   -1.7804135 
  232000     1.851875    -1.789158 0.0088568245   -1.7803012 
  233000    2.9111512   -1.7862302  0.013922946   -1.7723072 
  234000    2.1934218   -1.7870425  0.010490315   -1.7765522 
  235000    2.4920228   -1.7814427  0.011918412   -1.7695243 
  236000    2.3460981    -1.781231  0.011220508   -1.7700105 
  237000    2.6466553   -1.7836867  0.012657961   -1.7710287 
  238000    2.8413817   -1.7849785  0.013589264   -1.7713892 
  239000    2.0691707   -1.7817178 0.0098960685   -1.7718217 
  240000    3.2210618   -1.7863676  0.015405132   -1.7709625 
  241000    2.4059518   -1.7844944  0.011506766   -1.7729876 
  242000    2.7343377   -1.7878286  0.013077313   -1.7747513 
  243000    2.1947174   -1.7887616  0.010496511   -1.7782651 
  244000    2.0653929   -1.7883808 0.0098780006   -1.7785028 
  245000    1.8657935   -1.7887377 0.0089233913   -1.7798143 
  246000    2.0103551   -1.7889686 0.0096147755   -1.7793538 
  247000    1.6988155    -1.786336  0.008124798   -1.7782112 
  248000    2.0172706   -1.7882483 0.0096478497   -1.7786004 
  249000    1.9782677   -1.7901725 0.0094613132   -1.7807112 
  250000    2.5202441   -1.7892779  0.012053383   -1.7772246 
  251000    2.1023156    -1.790059  0.010054588   -1.7800044 
  252000    2.1202084   -1.7861557  0.010140162   -1.7760155 
  253000      2.65954   -1.7834396  0.012719583   -1.7707201 
  254000     2.855991   -1.7842146  0.013659135   -1.7705555 
  255000    2.9243087   -1.7870234  0.013985873   -1.7730376 
  256000    2.2302788   -1.7860728  0.010666588   -1.7754062 
  257000    1.9395947   -1.7850116 0.0092763549   -1.7757353 
  258000    2.5379585   -1.7827602  0.012138105   -1.7706221 
  259000     2.281909   -1.7836452  0.010913516   -1.7727317 
  260000    3.3533747   -1.7769822  0.016037935   -1.7609442 
  261000    3.8771744    -1.779026  0.018543073   -1.7604829 
  262000    3.8127667    -1.776126  0.018235035    -1.757891 
  263000    3.0433838    -1.774766  0.014555364   -1.7602106 
  264000    3.1351919   -1.7774973  0.014994448   -1.7625029 
  265000    3.8825552   -1.7813841  0.018568807   -1.7628153 
  266000    3.8384608   -1.7789628   0.01835792   -1.7606049 
  267000    3.8354639   -1.7808374  0.018343587   -1.7624938 
  268000    4.3975012   -1.7787047  0.021031601   -1.7576731 
  269000    4.0576211   -1.7777685  0.019406082   -1.7583625 
  270000     3.834062   -1.7803319  0.018336882    -1.761995 
  271000    4.8934612    -1.779787  0.023403592   -1.7563834 
  272000    3.5286548   -1.7794035  0.016876234   -1.7625272 
  273000    4.0261939   -1.7771767  0.019255777   -1.7579209 
  274000    3.3201079   -1.7774574  0.015878832   -1.7615786 
  275000    3.1988791   -1.7778746   0.01529904   -1.7625756 
  276000    3.9911554   -1.7784573  0.019088201   -1.7593691 
  277000    2.9928778    -1.780112  0.014313814   -1.7657981 
  278000    3.8138791   -1.7821333  0.018240355    -1.763893 
  279000    3.1911088   -1.7758771  0.015261878   -1.7606152 
  280000    3.6790459    -1.777014  0.017595498   -1.7594185 
  281000    4.5027501   -1.7792931  0.021534967   -1.7577581 
  282000    4.3238169   -1.7807149  0.020679196   -1.7600357 
  283000    3.6034083   -1.7728399  0.017233752   -1.7556061 
  284000     4.088868   -1.7787042  0.019555524   -1.7591487 
  285000    4.3310806   -1.7787704  0.020713936   -1.7580565 
  286000    3.1579907   -1.7808098  0.015103487   -1.7657063 
  287000    4.0357162   -1.7770345  0.019301318   -1.7577332 
  288000    3.3403839   -1.7787218  0.015975805    -1.762746 
  289000    3.7042463   -1.7758872  0.017716022   -1.7581711 
  290000    4.2428034   -1.7779949  0.020291739   -1.7577032 
  291000    4.8889287   -1.7808269  0.023381915   -1.7574449 
  292000    4.4401677   -1.7800278  0.021235659   -1.7587921 
  293000    2.9276666   -1.7813048  0.014001932   -1.7673028 
  294000    3.9369433   -1.7772661  0.018828925   -1.7584372 
  295000    2.9001949   -1.7804358  0.013870546   -1.7665652 
  296000    3.5443004   -1.7801958  0.016951061   -1.7632448 
  297000    3.4070487   -1.7786066  0.016294638    -1.762312 
  298000    3.0401959    -1.780585  0.014540118   -1.7660449 
  299000    3.8993015   -1.7808481  0.018648898   -1.7621992 
  300000    2.7760554   -1.7765102  0.013276833   -1.7632334 
  301000    3.5956095   -1.7781738  0.017196453   -1.7609774 
  302000     3.279973   -1.7806643  0.015686882   -1.7649774 
  303000    3.9804934   -1.7801503  0.019037209   -1.7611131 
  304000    4.1592949   -1.7753189  0.019892349   -1.7554266 
  305000    3.1099492   -1.7792222  0.014873722   -1.7643485 
  306000    3.2996097   -1.7839712  0.015780797   -1.7681904 
  307000    2.7668576    -1.781253  0.013232844   -1.7680201 
  308000    3.2809263   -1.7749453  0.015691441   -1.7592538 
  309000    5.1330526   -1.7774893  0.024549468   -1.7529398 
  310000    3.9800205   -1.7796335  0.019034947   -1.7605985 
  311000    4.1652556   -1.7804371  0.019920857   -1.7605163 
  312000    3.9995835   -1.7771881   0.01912851   -1.7580596 
  313000    4.7790715   -1.7748161  0.022856509   -1.7519596 
  314000    3.7683858   -1.7756399  0.018022778   -1.7576171 
  315000    3.6913717   -1.7794639  0.017654448   -1.7618095 
  316000    2.7070671   -1.7801306  0.012946888   -1.7671837 
  317000    3.6873103    -1.776808  0.017635024    -1.759173 
  318000    4.5173815   -1.7714691  0.021604943   -1.7498642 
  319000    4.1145707   -1.7765243   0.01967845   -1.7568458 
  320000    3.8546581   -1.7711618  0.018435386   -1.7527265 
  321000     5.275252   -1.7687089  0.025229554   -1.7434794 
  322000    5.2966115   -1.7676462  0.025331708   -1.7423145 
  323000    5.3596273   -1.7640182  0.025633089   -1.7383851 
  324000    5.1509844   -1.7662894  0.024635229   -1.7416542 
  325000    4.5656086   -1.7726807  0.021835596   -1.7508451 
  326000    4.0605457   -1.7623655  0.019420069   -1.7429454 
  327000    6.3638787   -1.7682782  0.030436048   -1.7378422 
  328000    5.4387661   -1.7666849  0.026011581   -1.7406733 
  329000    4.5481769   -1.7708724  0.021752226   -1.7491202 
  330000    5.3457014   -1.7700126  0.025566487   -1.7444461 
  331000    5.9540405   -1.7562307  0.028475945   -1.7277548 
  332000    5.8537835   -1.7572351  0.027996453   -1.7292386 
  333000    5.8801824   -1.7649295   0.02812271   -1.7368068 
  334000    7.0826929   -1.7641096  0.033873867   -1.7302358 
  335000    4.7684624   -1.7716519  0.022805769   -1.7488461 
  336000      5.43652   -1.7714263  0.026000838   -1.7454254 
  337000     4.520835   -1.7722897   0.02162146   -1.7506683 
  338000     4.899684   -1.7670028  0.023433353   -1.7435695 
  339000    3.8039775   -1.7705576  0.018192999   -1.7523646 
  340000    5.7321497   -1.7589973  0.027414724   -1.7315826 
  341000    6.6531791   -1.7691719  0.031819663   -1.7373523 
  342000    4.8427581   -1.7681894  0.023161098   -1.7450283 
  343000    6.1070268   -1.7677435  0.029207621   -1.7385358 
  344000    4.0905891   -1.7781109  0.019563755   -1.7585471 
  345000    5.2778497   -1.7731382  0.025241978   -1.7478962 
  346000    4.4448539   -1.7694169  0.021258071   -1.7481589 
  347000    9.2798293   -1.7679462  0.044381947   -1.7235643 
  348000    6.9365949   -1.7621492  0.033175135   -1.7289741 
  349000    6.4783383   -1.7659681  0.030983465   -1.7349846 
  350000     5.530567   -1.7730375   0.02645063   -1.7465869 
  351000    4.4172011   -1.7692363  0.021125818   -1.7481104 
  352000    5.4684088   -1.7637783  0.026153351    -1.737625 
  353000    5.1854771   -1.7670543  0.024800194   -1.7422541 
  354000    4.9216149   -1.7619214   0.02353824   -1.7383832 
  355000    5.9218685   -1.7591829  0.028322078   -1.7308608 
  356000     8.926984    -1.766767   0.04269442   -1.7240726 
  357000    7.6560726   -1.7624948  0.036616127   -1.7258786 
  358000     7.353728    -1.760132  0.035170126   -1.7249619 
  359000    5.4903755   -1.7613529  0.026258409   -1.7350945 
  360000    8.0982383   -1.7585172   0.03873084   -1.7197863 
  361000    5.8610177    -1.772931  0.028031052   -1.7448999 
  362000    4.6002762    -1.772079  0.022001398   -1.7500776 
  363000    4.8709222   -1.7678212  0.023295796   -1.7445254 
  364000    4.3102354   -1.7726509  0.020614241   -1.7520367 
  365000    4.4808127   -1.7687554  0.021430049   -1.7473254 
  366000    5.8590915   -1.7612213   0.02802184   -1.7331995 
  367000    6.4404669   -1.7651038   0.03080234   -1.7343014 
  368000    6.3839268   -1.7617629   0.03053193    -1.731231 
  369000      5.62033   -1.7614322  0.026879933   -1.7345522 
  370000    6.1520577   -1.7723455  0.029422987   -1.7429225 
  371000    7.8944937   -1.7520347  0.037756406   -1.7142783 
  372000     6.495402    -1.766995  0.031065075   -1.7359299 
  373000    6.4294009   -1.7659125  0.030749416    -1.735163 
  374000    5.9796072   -1.7694969  0.028598221   -1.7408987 
  375000    6.8340628   -1.7533528  0.032684762    -1.720668 
  376000    5.0089913   -1.7657353  0.023956129   -1.7417792 
  377000    6.7799467   -1.7649102  0.032425945   -1.7324842 
  378000    5.3245725   -1.7651699  0.025465436   -1.7397045 
  379000    6.1377215   -1.7590726  0.029354422   -1.7297182 
  380000    6.4828991   -1.7601113  0.031005278   -1.7291061 
  381000    6.0190104    -1.754831  0.028786672   -1.7260443 
  382000     7.798084   -1.7583716  0.037295314   -1.7210763 
  383000    6.2838721    -1.754969  0.030053406   -1.7249156 
  384000    6.4392986   -1.7647357  0.030796753    -1.733939 
  385000    5.5729469   -1.7606815  0.026653317   -1.7340282 
  386000     6.708092   -1.7595244  0.032082291   -1.7274421 
  387000    8.8081337    -1.760544  0.042126003    -1.718418 
  388000     6.180672   -1.7609068  0.029559839    -1.731347 
  389000    6.7375752   -1.7549896  0.032223298   -1.7227663 
  390000    6.2322083   -1.7607277  0.029806318   -1.7309214 
  391000     6.769684   -1.7623897  0.032376862   -1.7300129 
  392000    7.6638876   -1.7665018  0.036653503   -1.7298483 
  393000    6.1400443   -1.7572439  0.029365532   -1.7278784 
  394000     9.935818   -1.7495408  0.047519295   -1.7020215 
  395000    8.2257871   -1.7501412  0.039340858   -1.7108003 
  396000    9.7045528   -1.7586193   0.04641324   -1.7122061 
  397000    9.0844597   -1.7473703  0.043447568   -1.7039227 
  398000    7.4477435   -1.7345872  0.035619767   -1.6989674 
  399000    13.061012   -1.7267741  0.062465927   -1.6643082 
  400000    12.272444    -1.726211  0.058694501   -1.6675165 
  401000    11.085082   -1.7302331  0.053015795   -1.6772173 
  402000    10.909614   -1.7190999  0.052176596   -1.6669233 
  403000     10.76154   -1.7361594  0.051468416    -1.684691 
  404000    11.914448   -1.7314383  0.056982339   -1.6744559 
  405000    13.077075   -1.7343841  0.062542751   -1.6718414 
  406000    13.445447   -1.7404645  0.064304535     -1.67616 
  407000    10.621373   -1.7248111   0.05079805    -1.674013 
  408000    9.4794985   -1.7263022   0.04533689   -1.6809653 
  409000    14.496067   -1.7309493   0.06932926   -1.6616201 
  410000    12.561326   -1.7357766  0.060076115   -1.6757005 
  411000    8.6989633   -1.7538798  0.041603882   -1.7122759 
  412000    9.0671255   -1.7572255  0.043364664   -1.7138608 
  413000    11.347481   -1.7425839  0.054270749   -1.6883131 
  414000    8.0271968   -1.7323717  0.038391075   -1.6939807 
  415000    10.167021   -1.7100947  0.048625054   -1.6614697 
  416000    12.986386   -1.7358764   0.06210902   -1.6737674 
  417000    14.263418   -1.7345163  0.068216583   -1.6662997 
  418000    13.625384   -1.7204858  0.065165108   -1.6553207 
  419000    12.990859   -1.7324623  0.062130409   -1.6703319 
  420000    14.867659   -1.6935046  0.071106442   -1.6223982 
  421000    15.556882   -1.7134746  0.074402738   -1.6390718 
  422000    17.235604   -1.6884848  0.082431438   -1.6060533 
  423000    13.888399   -1.7141727  0.066423009   -1.6477497 
  424000    15.093894   -1.7013318   0.07218844   -1.6291433 
  425000    16.745045   -1.6939316  0.080085279   -1.6138463 
  426000    15.497893   -1.7216618  0.074120615   -1.6475412 
  427000    15.788157   -1.6984508  0.075508841   -1.6229419 
  428000    17.554717   -1.7229042  0.083957637   -1.6389466 
  429000    19.282804   -1.7028006  0.092222428   -1.6105782 
  430000    14.154746   -1.6952195  0.067696845   -1.6275226 
  431000    18.535874   -1.7238836  0.088650143   -1.6352335 
  432000    15.808502   -1.6889375  0.075606143   -1.6133314 
  433000    15.793036    -1.728675  0.075532175   -1.6531429 
  434000    14.858428    -1.696942  0.071062295   -1.6258797 
  435000    15.588901   -1.7254089  0.074555874    -1.650853 
  436000    21.790373   -1.7014725   0.10421519   -1.5972573 
  437000    18.369133   -1.7372833  0.087852683   -1.6494306 
  438000    10.539164   -1.7390152  0.050404873   -1.6886103 
  439000    9.1442407   -1.7398985  0.043733477    -1.696165 
  440000     13.13416   -1.7388777  0.062815766   -1.6760619 
  441000    15.136997   -1.7358264  0.072394588   -1.6634318 
  442000    12.280753   -1.7451482  0.058734239    -1.686414 
  443000    8.3233937   -1.7459222  0.039807674   -1.7061146 
  444000    8.4986414   -1.7570904  0.040645818   -1.7164446 
  445000     8.863095   -1.7390916  0.042388863   -1.6967027 
  446000    11.621689   -1.7326173  0.055582186   -1.6770351 
  447000    12.638635   -1.7305909  0.060445857   -1.6701451 
  448000    13.709824   -1.7379378  0.065568954   -1.6723688 
  449000    8.9225342   -1.7444238  0.042673138   -1.7017506 
  450000    12.990962   -1.7202297  0.062130902   -1.6580988 
  451000    12.641837   -1.7271754  0.060461172   -1.6667142 
  452000    12.875803   -1.7332976   0.06158014   -1.6717175 
  453000     12.33238   -1.7374004  0.058981154   -1.6784193 
  454000    13.979864   -1.7232861  0.066860451   -1.6564256 
  455000     15.68328   -1.7284941  0.075007254   -1.6534869 
  456000    10.551575   -1.7340027  0.050464229   -1.6835385 
  457000    11.641827   -1.7343811  0.055678499   -1.6787026 
  458000    11.319885   -1.7323899   0.05413877   -1.6782511 
  459000    14.881536   -1.7255381   0.07117281   -1.6543653 
  460000    12.429057   -1.7426543  0.059443521   -1.6832107 
  461000    13.934297   -1.7353529   0.06664252   -1.6687104 
  462000     11.14766   -1.7338048  0.053315079   -1.6804898 
  463000    11.862105   -1.7185089  0.056732005   -1.6617769 
  464000    11.837082   -1.7293325  0.056612327   -1.6727202 
  465000    12.921113   -1.7048333  0.061796845   -1.6430364 
  466000    12.219322   -1.7413979  0.058440439   -1.6829574 
  467000    10.198508   -1.7349888  0.048775643   -1.6862132 
  468000    11.350342   -1.7456232  0.054284432   -1.6913387 
  469000    14.101438   -1.7394981  0.067441896   -1.6720562 
  470000    13.159609   -1.7119671  0.062937479   -1.6490297 
  471000    11.401721    -1.731593   0.05453016   -1.6770628 
  472000    15.172784   -1.6998792  0.072565739   -1.6273134 
  473000    15.292495    -1.709349  0.073138276   -1.6362108 
  474000    17.339283   -1.7019753  0.082927296    -1.619048 
  475000    18.251065   -1.7042399  0.087288007   -1.6169519 
  476000     14.94909   -1.7185547  0.071495899   -1.6470588 
  477000    17.437877   -1.7011008  0.083398834    -1.617702 
  478000    15.905296    -1.693345  0.076069073    -1.617276 
  479000     15.62418   -1.6936903  0.074724597   -1.6189657 
  480000    16.865452   -1.7138132   0.08066114   -1.6331521 
  481000    18.517738   -1.6815641  0.088563404   -1.5930007 
  482000    17.079134   -1.7177576  0.081683098   -1.6360745 
  483000    17.433715   -1.7043273  0.083378926   -1.6209484 
  484000    16.464104   -1.7191908   0.07874164   -1.6404491 
  485000    15.708428   -1.7106004  0.075127526   -1.6354729 
  486000       19.841   -1.7226486  0.094892072   -1.6277566 
  487000    15.519309   -1.7093129  0.074223042   -1.6350898 
  488000    17.588382   -1.7186443   0.08411864   -1.6345256 
  489000    21.418325   -1.6949394   0.10243583   -1.5925035 
  490000    12.756804   -1.7189397  0.061011013   -1.6579287 
  491000    15.086588   -1.7086831  0.072153496   -1.6365296 
  492000    16.561164   -1.7099161  0.079205845   -1.6307103 
  493000    15.370044   -1.7208673   0.07350916   -1.6473582 
  494000    18.554891   -1.6928323   0.08874109   -1.6040912 
  495000    15.863857   -1.6958022  0.075870887   -1.6199313 
  496000    15.310121   -1.7070476  0.073222572   -1.6338251 
  497000    16.459304   -1.7050451  0.078718682   -1.6263264 
  498000    14.540511    -1.695408  0.069541815   -1.6258662 
  499000    18.011145   -1.7140294  0.086140561   -1.6278888 
  500000    12.059478   -1.6947479  0.057675964   -1.6370719 
  501000    14.505523   -1.7042343  0.069374483   -1.6348598 
  502000    15.877157   -1.7131747  0.075934496   -1.6372402 
  503000    17.636681   -1.7166571   0.08434964   -1.6323074 
  504000     17.75082   -1.6949596  0.084895522   -1.6100641 
  505000     12.61164   -1.7302146  0.060316751   -1.6698979 
  506000    19.749037   -1.6963766  0.094452248   -1.6019244 
  507000    13.936722   -1.6856292  0.066654121   -1.6189751 
  508000    12.896041   -1.6962054  0.061676934   -1.6345285 
  509000    14.230799   -1.6910365  0.068060581    -1.622976 
  510000    18.293917   -1.7269883   0.08749295   -1.6394954 
  511000    13.904289   -1.7109479  0.066499006   -1.6444489 
  512000    18.109674   -1.7071234  0.086611784   -1.6205116 
  513000    12.611795   -1.7137772  0.060317492   -1.6534597 
  514000    16.215802   -1.7068374  0.077554108   -1.6292833 
  515000    18.039081   -1.6989442  0.086274168     -1.61267 
  516000    14.157835   -1.7037877   0.06771162   -1.6360761 
  517000    13.665468   -1.7100644  0.065356813   -1.6447076 
  518000    15.445978   -1.7074846  0.073872325   -1.6336123 
  519000      15.7764   -1.7318281  0.075452612   -1.6563755 
  520000    10.578716   -1.7370037  0.050594037   -1.6864097 
  521000    12.488067   -1.7367339  0.059725748   -1.6770081 
  522000    13.867759   -1.7310574  0.066324296   -1.6647331 
  523000    10.422564   -1.7318637  0.049847217   -1.6820165 
  524000    11.003563   -1.7316218   0.05262592   -1.6789958 
  525000      12.7386   -1.7321252  0.060923953   -1.6712013 
  526000    12.499866   -1.7312633  0.059782175   -1.6714811 
  527000    8.8395512   -1.7479439  0.042276262   -1.7056677 
  528000    13.831229   -1.7155949  0.066149587   -1.6494453 
  529000    13.664286   -1.7264053  0.065351162   -1.6610542 
  530000    11.673969    -1.743576  0.055832222   -1.6877438 
  531000    16.074168   -1.7263762  0.076876725   -1.6494995 
  532000    12.348257   -1.7281488  0.059057087   -1.6690917 
  533000    12.100128   -1.7246651  0.057870378   -1.6667947 
  534000    10.430221   -1.7356234   0.04988384   -1.6857396 
  535000    13.433255   -1.7035812  0.064246227    -1.639335 
  536000    16.081986   -1.7292954  0.076914117   -1.6523813 
  537000    13.026665   -1.7312367   0.06230166    -1.668935 
  538000    11.905151   -1.7356567  0.056937876   -1.6787188 
  539000    13.578289   -1.7279853  0.064939869   -1.6630455 
  540000    13.446373    -1.744042  0.064308966    -1.679733 
  541000    10.769522   -1.7596128   0.05150659   -1.7081062 
  542000    10.680159   -1.7565103  0.051079198   -1.7054311 
  543000    10.314565    -1.742915  0.049330701   -1.6935843 
  544000    8.6045839   -1.7442123  0.041152501   -1.7030598 
  545000     11.81645   -1.7521019  0.056513652   -1.6955882 
  546000    9.1098713   -1.7523339  0.043569102   -1.7087648 
  547000    8.7204649   -1.7462802  0.041706717   -1.7045735 
  548000     7.884596   -1.7445657  0.037709069   -1.7068566 
  549000    9.6317216   -1.7489863  0.046064916   -1.7029214 
  550000    9.6547914    -1.749946   0.04617525   -1.7037708 
  551000    9.2360332   -1.7435656  0.044172487   -1.6993931 
  552000    11.089111   -1.7447275  0.053035063   -1.6916924 
  553000    9.2904196   -1.7458678  0.044432596   -1.7014352 
  554000    9.5925853    -1.744429  0.045877742   -1.6985513 
  555000    7.0596904   -1.7509111  0.033763855   -1.7171472 
  556000    10.486594   -1.7337283  0.050153452   -1.6835748 
  557000    9.0769766   -1.7543282  0.043411778   -1.7109164 
  558000    8.4775069   -1.7526434  0.040544739   -1.7120987 
  559000    9.1288528   -1.7397198  0.043659883     -1.69606 
  560000    9.5771381   -1.7570322  0.045803864   -1.7112283 
  561000    8.7623209   -1.7432998  0.041906898   -1.7013929 
  562000    7.9776742   -1.7529167  0.038154227   -1.7147625 
  563000    10.127226   -1.7465164  0.048434726   -1.6980817 
  564000    7.0733291   -1.7474658  0.033829083   -1.7136368 
  565000    7.0333037   -1.7455554  0.033637657   -1.7119178 
  566000    10.725141   -1.7564494   0.05129433    -1.705155 
  567000    8.3873543   -1.7408865  0.040113573   -1.7007729 
  568000    10.273474   -1.7507074  0.049134178   -1.7015733 
  569000    9.0706684   -1.7527417  0.043381609   -1.7093601 
  570000    9.7424752   -1.7445631  0.046594609   -1.6979685 
  571000    7.6626388   -1.7365797  0.036647531   -1.6999321 
  572000     12.48073   -1.7309389  0.059690656   -1.6712482 
  573000    11.283873   -1.7318354  0.053966535   -1.6778689 
  574000    9.4407629   -1.7477397  0.045151632    -1.702588 
  575000    10.420645   -1.7541588  0.049838043   -1.7043207 
  576000    6.9168539   -1.7448601  0.033080721   -1.7117794 
  577000    9.5063449   -1.7434324  0.045465286   -1.6979671 
  578000    7.7584197   -1.7407377  0.037105615   -1.7036321 
  579000    9.3094395    -1.756306  0.044523561   -1.7117824 
  580000    9.6813268   -1.7354991  0.046302159   -1.6891969 
  581000    10.261317   -1.7518797  0.049076034   -1.7028036 
  582000     9.208479   -1.7473842  0.044040705   -1.7033435 
  583000    7.6020047   -1.7471086   0.03635754    -1.710751 
  584000    8.8295112   -1.7498687  0.042228244   -1.7076405 
  585000    8.7447572   -1.7396289  0.041822898    -1.697806 
  586000    10.866703    -1.746784  0.051971369   -1.6948126 
  587000    10.594302   -1.7545775  0.050668576   -1.7039089 
  588000       8.8956   -1.7489655  0.042544322   -1.7064212 
  589000    12.965601   -1.7215015  0.062009612   -1.6594918 
  590000    12.664833   -1.7278806  0.060571153   -1.6673095 
  591000    11.805138   -1.7219392   0.05645955   -1.6654796 
  592000    9.3969423   -1.7349536  0.044942055   -1.6900115 
  593000    14.339403   -1.7204494  0.068579995   -1.6518694 
  594000    11.563467   -1.7516345  0.055303729   -1.6963307 
  595000    8.9619801   -1.7419188  0.042861793    -1.699057 
  596000    9.8552632   -1.7387081  0.047134032   -1.6915741 
  597000    9.0922245   -1.7515244  0.043484704   -1.7080397 
  598000    10.421441   -1.7407615  0.049841848   -1.6909197 
  599000    9.1767462   -1.7519738  0.043888939   -1.7080849 
  600000    10.372465   -1.7487373  0.049607614   -1.6991297 
  601000    8.0287058   -1.7497596  0.038398292   -1.7113613 
  602000    11.692209   -1.7409656  0.055919454   -1.6850462 
  603000    8.2518762   -1.7580488  0.039465632   -1.7185832 
  604000    8.7390131   -1.7494937  0.041795426   -1.7076983 
  605000    9.2351161   -1.7520735  0.044168101   -1.7079054 
  606000    8.5119468   -1.7339156  0.040709453   -1.6932062 
  607000    9.4711084    -1.747405  0.045296763   -1.7021083 
  608000    10.310009   -1.7356371  0.049308908   -1.6863281 
  609000    10.747224   -1.7485321  0.051399948   -1.6971322 
  610000    6.7726006   -1.7576538  0.032390811    -1.725263 
  611000    6.5957356   -1.7640511  0.031544932   -1.7325061 
  612000    6.5568978   -1.7669785  0.031359186   -1.7356193 
  613000    7.1925795   -1.7557688  0.034399413   -1.7213693 
  614000    8.2343131    -1.740966  0.039381635   -1.7015844 
  615000    10.279083    -1.739847  0.049161005    -1.690686 
  616000    14.904247   -1.7291106  0.071281427   -1.6578292 
  617000    13.017963   -1.7335514  0.062260042   -1.6712914 
  618000    12.109867   -1.7400858  0.057916957   -1.6821688 
  619000    9.6198556   -1.7234264  0.046008165   -1.6774183 
  620000     11.77708   -1.7229697  0.056325361   -1.6666443 
  621000    8.3967914   -1.7290516  0.040158707   -1.6888929 
  622000    11.458359   -1.7291476   0.05480104   -1.6743466 
  623000    12.514686   -1.7292297  0.059853057   -1.6693766 
  624000    12.007576   -1.7198473  0.057427736   -1.6624196 
  625000    12.080319   -1.7425202  0.057775638   -1.6847445 
  626000    11.645227   -1.7166404  0.055694759   -1.6609457 
  627000    10.783525   -1.7153084   0.05157356   -1.6637349 
  628000    17.422372   -1.7162882  0.083324676   -1.6329635 
  629000    16.925873    -1.676161  0.080950111   -1.5952109 
  630000    17.231731    -1.710344  0.082412915   -1.6279311 
  631000    16.336378   -1.6952422  0.078130777   -1.6171115 
  632000      14.3477   -1.7003317  0.068619675    -1.631712 
  633000    13.941211   -1.7087484   0.06667559   -1.6420728 
  634000    17.155919   -1.7127643  0.082050332   -1.6307139 
  635000    13.114651    -1.717541  0.062722462   -1.6548185 
  636000    16.926131   -1.7078001  0.080951344   -1.6268487 
  637000    15.068187   -1.7170747  0.072065493   -1.6450092 
  638000    15.647927   -1.7068885  0.074838174   -1.6320503 
  639000     18.09989   -1.7046747  0.086564993   -1.6181097 
  640000    17.107874   -1.7101041   0.08182055   -1.6282836 
  641000    16.725996   -1.7002344  0.079994173   -1.6202402 
  642000      21.0553   -1.7121205   0.10069961   -1.6114209 
  643000    14.586349   -1.6939887  0.069761042   -1.6242277 
  644000    20.369831   -1.7216621  0.097421272   -1.6242409 
  645000    16.184037   -1.6879141  0.077402184   -1.6105119 
  646000    15.107682   -1.7075004  0.072254384    -1.635246 
  647000     12.14009   -1.7048088  0.058061503   -1.6467473 
  648000    16.029145   -1.7021907  0.076661395   -1.6255293 
  649000    17.097028   -1.7055424  0.081768678   -1.6237737 
  650000     16.18541   -1.7156199  0.077408755   -1.6382112 
  651000    13.201936   -1.7295692  0.063139913   -1.6664293 
  652000    14.076182   -1.6976751  0.067321105    -1.630354 
  653000    18.897676   -1.7239976  0.090380502   -1.6336171 
  654000    9.4184506   -1.7331962  0.045044921   -1.6881513 
  655000    10.205366    -1.746728  0.048808441   -1.6979196 
  656000    10.748198   -1.7482842  0.051404606   -1.6968796 
  657000    7.8143145   -1.7440299  0.037372939    -1.706657 
  658000    9.0964934   -1.7420476   0.04350512   -1.6985425 
  659000    8.5107968   -1.7517675  0.040703952   -1.7110635 
  660000    11.059489   -1.7547944  0.052893392    -1.701901 
  661000    7.4054155   -1.7307514  0.035417328    -1.695334 
  662000    11.466092   -1.7532639  0.054838022   -1.6984258 
  663000    8.2774997   -1.7474722   0.03958818    -1.707884 
  664000    9.2323008   -1.7521255  0.044154636   -1.7079709 
  665000    9.5935263   -1.7432558  0.045882242   -1.6973735 
  666000    8.3395024   -1.7508344  0.039884716   -1.7109497 
  667000    8.7775578   -1.7480541  0.041979771   -1.7060743 
  668000    7.5115752   -1.7464497   0.03592505   -1.7105246 
  669000    8.0225724   -1.7532673  0.038368958   -1.7148983 
  670000    8.7714583   -1.7608824  0.041950599   -1.7189318 
  671000    7.6396803   -1.7442824  0.036537729   -1.7077447 
  672000    9.7599252   -1.7452479  0.046678066   -1.6985699 
  673000    8.4943571   -1.7580999  0.040625328   -1.7174746 
  674000    8.7802099    -1.743058  0.041992455   -1.7010656 
  675000    7.3918368   -1.7288678  0.035352386   -1.6935154 
  676000    7.5055449   -1.7552859   0.03589621   -1.7193897 
  677000    8.9068646   -1.7457564  0.042598197   -1.7031582 
  678000    10.865082   -1.7494845  0.051963616   -1.6975209 
  679000    8.5765965   -1.7366196  0.041018648   -1.6956009 
  680000    9.5805585   -1.7589201  0.045820222   -1.7130999 
  681000    10.833028   -1.7474369  0.051810312   -1.6956266 
  682000    10.799911   -1.7407715  0.051651931   -1.6891196 
  683000    9.9321946   -1.7516488  0.047501966   -1.7041469 
  684000    8.1310902   -1.7576978  0.038887958   -1.7188098 
  685000    9.8233448   -1.7463517  0.046981378   -1.6993703 
  686000    6.7373756   -1.7501793  0.032222343   -1.7179569 
  687000    7.0507286    -1.745629  0.033720993    -1.711908 
  688000    10.576589   -1.7487754  0.050583861   -1.6981915 
  689000    8.9644064   -1.7532151  0.042873397   -1.7103417 
  690000    9.2174925   -1.7437513  0.044083814   -1.6996675 
  691000    9.9358676   -1.7479058  0.047519533   -1.7003863 
  692000    8.2633048   -1.7456603  0.039520291     -1.70614 
  693000    6.6327025   -1.7521082  0.031721731   -1.7203864 
  694000    7.7107341   -1.7479225  0.036877552   -1.7110449 
  695000    10.005794   -1.7534472  0.047853963   -1.7055933 
  696000    8.8661348    -1.733359  0.042403401   -1.6909556 
  697000    10.996897   -1.7504537  0.052594037   -1.6978597 
  698000    9.2592508   -1.7529206  0.044283528   -1.7086371 
  699000    10.014377   -1.7424397  0.047895014   -1.6945447 
  700000    9.7745494   -1.7511341  0.046748008   -1.7043861 
  701000    8.7228179   -1.7477575   0.04171797   -1.7060395 
  702000    8.5236816   -1.7464469  0.040765576   -1.7056813 
  703000    8.7551102   -1.7531349  0.041872412   -1.7112625 
  704000    7.8173876   -1.7442493  0.037387636   -1.7068616 
  705000    9.6823978   -1.7435884  0.046307281   -1.6972812 
  706000    8.7484152    -1.734748  0.041840393   -1.6929076 
  707000    9.0475042   -1.7374967  0.043270823   -1.6942259 
  708000    10.116315   -1.7496488  0.048382543   -1.7012663 
  709000    9.1967208   -1.7379702   0.04398447   -1.6939857 
  710000    11.426164   -1.7334905  0.054647063   -1.6788435 
  711000    12.009705   -1.7316442  0.057437919   -1.6742063 
  712000    9.0490474   -1.7573469  0.043278203   -1.7140687 
  713000    5.9724645   -1.7698454   0.02856406   -1.7412814 
  714000    5.9862063   -1.7584214  0.028629782   -1.7297916 
  715000    8.7853305   -1.7684218  0.042016944   -1.7264049 
  716000    5.2404962   -1.7725263   0.02506333    -1.747463 
  717000    3.3043751   -1.7750048  0.015803588   -1.7592013 
  718000    5.5389287   -1.7743893  0.026490621   -1.7478987 
  719000    5.7135469   -1.7747536  0.027325754   -1.7474278 
  720000    3.9436739   -1.7777643  0.018861115   -1.7589032 
  721000    4.0498157   -1.7830482  0.019368751   -1.7636794 
  722000    3.5636454   -1.7844692  0.017043581   -1.7674256 
  723000    3.0364143   -1.7832688  0.014522032   -1.7687468 
  724000    2.6217308   -1.7869927  0.012538756    -1.774454 
  725000    2.2604254   -1.7893719  0.010810768   -1.7785612 
  726000    2.1423678   -1.7914665  0.010246142   -1.7812204 
  727000    1.7456816   -1.7928297 0.0083489412   -1.7844808 
  728000    1.5597983   -1.7901015 0.0074599311   -1.7826416 
  729000    2.3821224   -1.7871547  0.011392799   -1.7757619 
  730000    1.8810204   -1.7913158 0.0089962157   -1.7823195 
  731000    1.7623853   -1.7916136 0.0084288287   -1.7831848 
  732000    2.1883869   -1.7883387  0.010466235   -1.7778724 
  733000    2.1683057   -1.7906532  0.010370194    -1.780283 
  734000    2.1577042   -1.7891682  0.010319491   -1.7788487 
  735000    2.0200051   -1.7862389 0.0096609276    -1.776578 
  736000    2.0630328    -1.789101  0.009866713   -1.7792342 
  737000    1.9755176   -1.7866418 0.0094481607   -1.7771936 
  738000    1.8529648   -1.7900399 0.0088620362   -1.7811779 
  739000    2.0964437   -1.7899975  0.010026505    -1.779971 
  740000    2.2052383   -1.7863026  0.010546828   -1.7757558 
  741000     1.862397   -1.7879772 0.0089071472     -1.77907 
  742000    1.9727304   -1.7911205 0.0094348303   -1.7816857 
  743000    2.0512886   -1.7905017 0.0098105447   -1.7806911 
  744000       2.1536   -1.7881335  0.010299862   -1.7778336 
  745000    2.2996962    -1.787745  0.010998586   -1.7767464 
  746000    2.3793902   -1.7869313  0.011379732   -1.7755516 
  747000    1.8022288   -1.7871731 0.0086193851   -1.7785537 
  748000    1.9821941    -1.789956 0.0094800917   -1.7804759 
  749000    1.9986425   -1.7884816 0.0095587585   -1.7789228 
  750000    1.7532175   -1.7892924 0.0083849826   -1.7809074 
  751000    1.6957832   -1.7895722 0.0081102959   -1.7814619 
  752000    2.3980407   -1.7862362   0.01146893   -1.7747673 
  753000    1.8493749   -1.7915949 0.0088448671     -1.78275 
  754000    1.7722836   -1.7903609 0.0084761684   -1.7818847 
  755000    1.6831376    -1.790431 0.0080498165   -1.7823812 
  756000    2.0304949   -1.7911662 0.0097110963   -1.7814551 
  757000    2.0719769   -1.7877184 0.0099094894   -1.7778089 
  758000    2.0163556   -1.7882883 0.0096434734   -1.7786448 
  759000    2.6888778   -1.7885115  0.012859895   -1.7756516 
  760000    1.8523299   -1.7894865 0.0088589997   -1.7806275 
  761000     1.754312   -1.7881619 0.0083902173   -1.7797717 
  762000    1.4918983   -1.7879213 0.0071351908   -1.7807861 
  763000    1.4702676   -1.7889941 0.0070317389   -1.7819623 
  764000    2.3473528   -1.7874294  0.011226509   -1.7762029 
  765000    2.3858327    -1.785493  0.011410544   -1.7740825 
  766000    2.3781283   -1.7862608  0.011373697   -1.7748871 
  767000    2.5534629   -1.7836443  0.012212256    -1.771432 
  768000    2.4819459   -1.7851696  0.011870218   -1.7732993 
  769000    2.6919946   -1.7839282  0.012874802   -1.7710534 
  770000    2.1992725    -1.789842  0.010518296   -1.7793237 
  771000    1.7382581   -1.7888566 0.0083134371   -1.7805432 
  772000    2.0962022   -1.7908392   0.01002535   -1.7808139 
  773000    2.2535734   -1.7916401  0.010777997   -1.7808621 
  774000    2.1296027   -1.7862923  0.010185092   -1.7761072 
  775000    1.6369553   -1.7853557 0.0078289439   -1.7775268 
  776000    3.2519826   -1.7864028  0.015553014   -1.7708497 
  777000    2.2254025   -1.7839758  0.010643266   -1.7733325 
  778000    2.6979209   -1.7890223  0.012903145   -1.7761192 
  779000    2.5411669    -1.785924  0.012153449   -1.7737705 
  780000     2.847747   -1.7793299  0.013619707   -1.7657102 
  781000    2.2288823   -1.7862289  0.010659909    -1.775569 
  782000    2.6131322   -1.7855632  0.012497633   -1.7730656 
  783000    2.6616863   -1.7819395  0.012729848   -1.7692096 
  784000    2.9264834   -1.7854117  0.013996274   -1.7714154 
  785000    2.4591423   -1.7838116  0.011761156   -1.7720505 
  786000    2.5880366   -1.7802489  0.012377609   -1.7678713 
  787000    2.6681612   -1.7859248  0.012760816    -1.773164 
  788000    3.2269697   -1.7842295  0.015433387   -1.7687961 
  789000    2.9064626   -1.7878139  0.013900522   -1.7739134 
  790000    2.1609993   -1.7897771   0.01033525   -1.7794418 
  791000    1.7828139   -1.7898029  0.008526531   -1.7812764 
  792000    1.6769713   -1.7881246 0.0080203256   -1.7801043 
  793000    1.9140513   -1.7912073 0.0091541901   -1.7820531 
  794000    2.2247286   -1.7881146  0.010640043   -1.7774745 
  795000    1.8650201   -1.7910252 0.0089196924   -1.7821056 
  796000    1.8669115   -1.7876244 0.0089287384   -1.7786956 
  797000    1.9305121   -1.7894295 0.0092329162   -1.7801966 
  798000    1.9518024   -1.7866769 0.0093347399   -1.7773421 
  799000    2.4160545    -1.782836  0.011555084   -1.7712809 
  800000    3.1842583   -1.7848782  0.015229114   -1.7696491 
  801000    2.8027681   -1.7824998   0.01340459   -1.7690952 
  802000    2.8197924   -1.7831665  0.013486011   -1.7696805 
  803000    2.9109908   -1.7839053  0.013922178   -1.7699832 
  804000    2.7061111   -1.7861606  0.012942315   -1.7732183 
  805000    2.6943306   -1.7803234  0.012885974   -1.7674374 
  806000    3.1419752    -1.784406   0.01502689   -1.7693791 
  807000    2.6464267   -1.7832601  0.012656867   -1.7706032 
  808000    2.6691517   -1.7827443  0.012765553   -1.7699788 
  809000    2.4764418    -1.785503  0.011843894   -1.7736591 
  810000    2.5907455   -1.7837029  0.012390565   -1.7713123 
  811000    2.5240485   -1.7826129  0.012071578   -1.7705413 
  812000    2.8022765    -1.785847  0.013402239   -1.7724448 
  813000    2.7028892   -1.7825533  0.012926906   -1.7696263 
  814000    3.1163001   -1.7802657  0.014904096   -1.7653616 
  815000    3.3650599   -1.7885133  0.016093821   -1.7724194 
  816000    1.9556737   -1.7874373 0.0093532547   -1.7780841 
  817000     2.019984    -1.789748 0.0096608267   -1.7800872 
  818000    2.6065966   -1.7881899  0.012466375   -1.7757236 
  819000    1.7083164   -1.7890106 0.0081702376   -1.7808403 
  820000    1.7280917   -1.7899672 0.0082648154   -1.7817023 
  821000    1.8676686   -1.7888261 0.0089323592   -1.7798937 
  822000    2.1149062   -1.7893066  0.010114804   -1.7791918 
  823000    2.6945157   -1.7848733  0.012886859   -1.7719864 
  824000    2.3821556   -1.7849534  0.011392958   -1.7735604 
  825000    2.3453832   -1.7839882  0.011217089   -1.7727711 
  826000    2.7561743   -1.7843488  0.013181749    -1.771167 
  827000    2.7212918   -1.7846552  0.013014919   -1.7716403 
  828000    2.8541401   -1.7859846  0.013650283   -1.7723343 
  829000    2.9805295   -1.7869997  0.014254756   -1.7727449 
  830000    2.4386061   -1.7901317  0.011662939   -1.7784687 
  831000    2.2626212   -1.7881296   0.01082127   -1.7773083 
  832000    2.0138275   -1.7911569 0.0096313823   -1.7815255 
  833000    2.1057768   -1.7913295  0.010071142   -1.7812583 
  834000    1.9713639   -1.7871948 0.0094282951   -1.7777666 
  835000    1.8309452   -1.7892468  0.008756725   -1.7804901 
  836000     1.840519   -1.7918166 0.0088025128   -1.7830141 
  837000    1.9820548   -1.7879686 0.0094794257   -1.7784892 
  838000    2.3455246   -1.7858895  0.011217765   -1.7746717 
  839000     2.371864   -1.7842941  0.011343737   -1.7729504 
  840000    3.1231618    -1.783403  0.014936913    -1.768466 
  841000    3.0021599   -1.7890636  0.014358206   -1.7747054 
  842000    2.7215397   -1.7852542  0.013016105   -1.7722381 
  843000    2.8039509   -1.7829396  0.013410247   -1.7695294 
  844000    2.5305106   -1.7821762  0.012102484   -1.7700737 
  845000    2.9083557   -1.7843625  0.013909576   -1.7704529 
  846000     2.576301   -1.7831003  0.012321482   -1.7707788 
  847000    2.5246052   -1.7867174  0.012074241   -1.7746431 
  848000    1.8708697   -1.7879846 0.0089476688    -1.779037 
  849000    1.9836072   -1.7871059 0.0094868503    -1.777619 
  850000    2.2167326   -1.7885195  0.010601802   -1.7779177 
  851000    2.0288751    -1.789617 0.0097033494   -1.7799136 
  852000    2.0839101   -1.7903014 0.0099665614   -1.7803349 
  853000    2.1645372   -1.7895943   0.01035217   -1.7792421 
  854000    1.9715916   -1.7881577  0.009429384   -1.7787284 
  855000    2.0965027   -1.7876974  0.010026787   -1.7776706 
  856000    2.0690807   -1.7894482 0.0098956379   -1.7795526 
  857000    1.9226698   -1.7898786 0.0091954093   -1.7806832 
  858000    2.4428198   -1.7876966  0.011683092   -1.7760135 
  859000    1.7885235   -1.7903697  0.008553838   -1.7818158 
  860000    1.5432245   -1.7878534 0.0073806647   -1.7804728 
  861000    2.0056562   -1.7899962 0.0095923024   -1.7804039 
  862000    2.2726528   -1.7894845  0.010869247   -1.7786153 
  863000    2.1298437   -1.7880074  0.010186244   -1.7778212 
  864000    2.5268672   -1.7871535  0.012085059   -1.7750685 
  865000    1.7597238   -1.7907735 0.0084160998   -1.7823574 
  866000    1.7335771   -1.7878699   0.00829105   -1.7795789 
  867000    2.0897821   -1.7897882 0.0099946451   -1.7797936 
  868000    2.0044299   -1.7877902 0.0095864374   -1.7782038 
  869000    2.1852917   -1.7881006  0.010451432   -1.7776492 
  870000    1.6310146   -1.7901618 0.0078005316   -1.7823613 
  871000    1.8874084   -1.7900177 0.0090267674    -1.780991 
  872000    2.2077485    -1.787129  0.010558834   -1.7765702 
  873000    2.1183012   -1.7878246  0.010131041   -1.7776936 
  874000    2.3924463   -1.7848754  0.011442174   -1.7734333 
  875000      2.51695   -1.7859164  0.012037629   -1.7738787 
  876000    2.9384276   -1.7848072  0.014053398   -1.7707539 
  877000    2.8471979   -1.7872061  0.013617081    -1.773589 
  878000    2.5205444   -1.7855644   0.01205482   -1.7735096 
  879000    2.4632282   -1.7850439  0.011780697   -1.7732632 
  880000    2.5976005   -1.7887169   0.01242335   -1.7762936 
  881000     2.211155   -1.7875576  0.010575126   -1.7769825 
  882000    1.7780763   -1.7873723 0.0085038728   -1.7788684 
  883000    2.4370696   -1.7906043  0.011655591   -1.7789487 
  884000    1.5843675    -1.791794  0.007577436   -1.7842166 
  885000    2.1054183   -1.7893649  0.010069427   -1.7792955 
  886000    1.9563971   -1.7889659 0.0093567143   -1.7796092 
  887000    2.3482782   -1.7880462  0.011230935   -1.7768152 
  888000     1.770195   -1.7866174 0.0084661796   -1.7781512 
  889000    2.0120119   -1.7883765 0.0096226991   -1.7787538 
  890000    2.7571973   -1.7804785  0.013186642   -1.7672918 
  891000    2.8013317   -1.7838119   0.01339772   -1.7704142 
  892000    2.5997784   -1.7831582  0.012433766   -1.7707244 
  893000     1.999746   -1.7898229 0.0095640361   -1.7802589 
  894000    2.5704311   -1.7924768  0.012293409   -1.7801834 
  895000    1.7116761   -1.7911927 0.0081863055   -1.7830064 
  896000    2.2741109   -1.7872744   0.01087622   -1.7763981 
  897000    1.7651475   -1.7888424 0.0084420392   -1.7804004 
  898000    1.6837526   -1.7864983 0.0080527577   -1.7784455 
  899000    1.7476229   -1.7877749 0.0083582254   -1.7794167 
  900000    2.0876367   -1.7876894  0.009984384   -1.7777051 
  901000    1.6397105   -1.7898904 0.0078421209   -1.7820483 
  902000    2.1371926   -1.7866259  0.010221392   -1.7764045 
  903000    2.0579325   -1.7876035 0.0098423203   -1.7777612 
  904000    1.8514861   -1.7904915 0.0088549645   -1.7816365 
  905000    2.0688241   -1.7918932 0.0098944105   -1.7819988 
  906000    2.1131225   -1.7886515  0.010106273   -1.7785453 
  907000    1.8529496   -1.7927321 0.0088619636   -1.7838702 
  908000    2.2648141   -1.7877404  0.010831757   -1.7769087 
  909000    2.0208946   -1.7879653 0.0096651817   -1.7783001 
  910000     2.153893   -1.7896656  0.010301263   -1.7793644 
  911000    2.1148653   -1.7906076  0.010114608    -1.780493 
  912000    1.5394007   -1.7901427 0.0073623767   -1.7827803 
  913000    2.1085261   -1.7886899   0.01008429   -1.7786056 
  914000    1.5053401   -1.7877701 0.0071994776   -1.7805707 
  915000    1.8254839   -1.7844689 0.0087306056   -1.7757383 
  916000     1.767545   -1.7893984 0.0084535057   -1.7809449 
  917000    2.0908753   -1.7878762 0.0099998733   -1.7778763 
  918000    2.2413168   -1.7905712  0.010719378   -1.7798518 
  919000    1.6163056   -1.7880386 0.0077301841   -1.7803084 
  920000    2.1740967   -1.7887134   0.01039789   -1.7783155 
  921000    1.7572244   -1.7879614  0.008404146   -1.7795573 
  922000    2.0999814   -1.7898119  0.010043424   -1.7797684 
  923000    2.2794849   -1.7885439  0.010901922    -1.777642 
  924000    2.6105594   -1.7897751  0.012485327   -1.7772897 
  925000    2.1004515   -1.7863533  0.010045673   -1.7763076 
  926000    2.2546146   -1.7880286  0.010782977   -1.7772457 
  927000    2.1641033   -1.7889485  0.010350095   -1.7785984 
  928000    1.9098028   -1.7905754 0.0091338715   -1.7814416 
  929000    2.2007061   -1.7911484  0.010525153   -1.7806232 
  930000    1.9622701   -1.7888387 0.0093848026   -1.7794539 
  931000      2.51743    -1.790793  0.012039924    -1.778753 
  932000    1.9374299   -1.7918724 0.0092660012   -1.7826064 
  933000    1.8789256   -1.7905386 0.0089861972   -1.7815524 
  934000    2.2993884   -1.7889716  0.010997113   -1.7779745 
  935000    1.6763485   -1.7896869 0.0080173469   -1.7816695 
  936000    2.0469554   -1.7880668 0.0097898209   -1.7782769 
  937000    2.1299941   -1.7893123  0.010186964   -1.7791253 
  938000    1.9302299   -1.7874673 0.0092315665   -1.7782357 
  939000    1.7480414   -1.7871434 0.0083602272   -1.7787831 
  940000    2.1736264   -1.7858646  0.010395641    -1.775469 
  941000    1.9924488   -1.7893195 0.0095291361   -1.7797903 
  942000    1.9295671    -1.790095 0.0092283967   -1.7808666 
  943000    1.5483771   -1.7892126 0.0074053078   -1.7818073 
  944000    2.0326391   -1.7869397 0.0097213515   -1.7772184 
  945000    1.7586948   -1.7890527 0.0084111782   -1.7806415 
  946000    2.3836201   -1.7880394  0.011399962   -1.7766395 
  947000    2.2162939   -1.7932219  0.010599703   -1.7826222 
  948000     1.960928   -1.7912096 0.0093783839   -1.7818312 
  949000    1.7380319   -1.7874989 0.0083123554   -1.7791866 
  950000    1.4785983   -1.7856361 0.0070715816   -1.7785645 
  951000     2.064941    -1.787563 0.0098758391   -1.7776872 
  952000    1.8569961   -1.7890458 0.0088813167   -1.7801645 
  953000     2.175727   -1.7908407  0.010405687    -1.780435 
  954000    1.8637358   -1.7886352 0.0089135503   -1.7797216 
  955000    1.4522693   -1.7885893 0.0069456602   -1.7816437 
  956000     2.091207   -1.7867854   0.01000146   -1.7767839 
  957000     1.536053   -1.7887811 0.0073463662   -1.7814347 
  958000    2.1644366   -1.7893618  0.010351689   -1.7790101 
  959000     2.246084    -1.790169  0.010742178   -1.7794268 
  960000    1.6109929   -1.7865484 0.0077047757   -1.7788437 
  961000     2.766323   -1.7813477  0.013230286   -1.7681174 
  962000    4.3392951   -1.7800269  0.020753223   -1.7592737 
  963000     4.531997    -1.782183  0.021674844   -1.7605082 
  964000    3.1759299   -1.7789945  0.015189283   -1.7638052 
  965000    3.6160553   -1.7738424  0.017294238   -1.7565482 
  966000    5.5032335   -1.7769558  0.026319904   -1.7506359 
  967000    3.8697908   -1.7796622   0.01850776   -1.7611545 
  968000    3.9491517   -1.7727727  0.018887313   -1.7538854 
  969000    4.0205325    -1.779201  0.019228701   -1.7599723 
  970000    3.5619217    -1.775143  0.017035337   -1.7581076 
  971000    4.2192402   -1.7770039  0.020179045   -1.7568248 
  972000    5.0577274   -1.7710732  0.024189215   -1.7468839 
  973000    4.0430914   -1.7774485  0.019336592   -1.7581119 
  974000    4.1160393   -1.7805086  0.019685474   -1.7608231 
  975000    3.3857511   -1.7763633  0.016192779   -1.7601705 
  976000    3.3073782   -1.7772243  0.015817951   -1.7614064 
  977000    3.9584041   -1.7772787  0.018931564   -1.7583471 
  978000    3.7588162   -1.7750238   0.01797701   -1.7570468 
  979000    3.1749259   -1.7775629  0.015184481   -1.7623784 
  980000    3.6439953   -1.7776236  0.017427865   -1.7601957 
  981000    3.6219263   -1.7826473  0.017322317    -1.765325 
  982000    3.7896981    -1.780176  0.018124706   -1.7620513 
  983000    3.5387737   -1.7796754  0.016924629   -1.7627508 
  984000    3.0334084   -1.7786158  0.014507656   -1.7641082 
  985000    4.5300938   -1.7774868  0.021665742   -1.7558211 
  986000    3.5627006   -1.7797868  0.017039062   -1.7627478 
  987000    3.9889224   -1.7818445  0.019077521   -1.7627669 
  988000    3.4579133   -1.7818592  0.016537904   -1.7653213 
  989000    3.4657143   -1.7783434  0.016575213   -1.7617682 
  990000    3.8112205   -1.7732374   0.01822764   -1.7550097 
  991000    3.8394074   -1.7694439  0.018362447   -1.7510815 
  992000    4.3683307   -1.7747512  0.020892089   -1.7538591 
  993000    5.2778527   -1.7765073  0.025241992   -1.7512653 
  994000    4.7681219    -1.774514  0.022804141   -1.7517098 
  995000    5.2188537   -1.7682042  0.024959822   -1.7432443 
  996000    3.7099383   -1.7721459  0.017743245   -1.7544027 
  997000    5.9106195    -1.775113  0.028268279   -1.7468447 
  998000    4.7758808   -1.7692031  0.022841249   -1.7463618 
  999000    5.8927001    -1.769383  0.028182577   -1.7412005 
 1000000    5.9093576   -1.7725062  0.028262243   -1.7442439 
 1001000    5.1391064   -1.7745791  0.024578421   -1.7500007 
 1002000    4.7339097   -1.7681855  0.022640517   -1.7455449 
 1003000    5.3217604   -1.7647749  0.025451986   -1.7393229 
 1004000    6.5025923   -1.7638252  0.031099463   -1.7327258 
 1005000    6.5521726   -1.7646711  0.031336587   -1.7333345 
 1006000    9.1844002   -1.7414382  0.043925545   -1.6975126 
 1007000     8.317403   -1.7463261  0.039779023   -1.7065471 
 1008000    10.790126   -1.7424028   0.05160513   -1.6907977 
 1009000    8.4770946   -1.7404189  0.040542768   -1.6998761 
 1010000    8.4202816   -1.7423666  0.040271052   -1.7020955 
 1011000    8.7279025   -1.7425104  0.041742288   -1.7007681 
 1012000    9.7107681   -1.7550772  0.046442966   -1.7086342 
 1013000     7.046398    -1.765401  0.033700282   -1.7317007 
 1014000    6.3274629   -1.7614762  0.030261885   -1.7312143 
 1015000    6.6842724   -1.7631603  0.031968371    -1.731192 
 1016000    6.2827789   -1.7620211  0.030048178   -1.7319729 
 1017000    5.8237783   -1.7593644   0.02785295   -1.7315114 
 1018000     9.150739   -1.7464617  0.043764557   -1.7026971 
 1019000     8.525473   -1.7418929  0.040774143   -1.7011188 
 1020000    9.0188492     -1.74852  0.043133777   -1.7053863 
 1021000    8.3864066     -1.76013  0.040109041    -1.720021 
 1022000    6.0471628   -1.7620509  0.028921314   -1.7331296 
 1023000    7.3381524   -1.7649613  0.035095634   -1.7298656 
 1024000    6.4681322   -1.7662795  0.030934653   -1.7353449 
 1025000    6.7902609   -1.7650912  0.032475274   -1.7326159 
 1026000    5.8685008   -1.7689785  0.028066841   -1.7409117 
 1027000    5.5615921   -1.7739991  0.026599011      -1.7474 
 1028000    5.0111459   -1.7718307  0.023966433   -1.7478643 
 1029000    6.4825691   -1.7669653    0.0310037   -1.7359616 
 1030000    5.9889971   -1.7629478   0.02864313   -1.7343046 
 1031000    4.3295207   -1.7739686  0.020706476   -1.7532621 
 1032000    4.6529919   -1.7686805  0.022253517    -1.746427 
 1033000    5.8798874   -1.7744489  0.028121299   -1.7463276 
 1034000    5.9086691   -1.7660736  0.028258951   -1.7378147 
 1035000    5.2917205   -1.7651178  0.025308317   -1.7398095 
 1036000    4.1186315   -1.7729264  0.019697872   -1.7532285 
 1037000    5.4792125   -1.7708752  0.026205021   -1.7446702 
 1038000    5.0399382   -1.7645254  0.024104136   -1.7404213 
 1039000    4.2242646   -1.7714346  0.020203075   -1.7512315 
 1040000    4.7569961   -1.7682448   0.02275093   -1.7454939 
 1041000    5.0944631   -1.7722802  0.024364909   -1.7479153 
 1042000    5.7337759   -1.7752626  0.027422502     -1.74784 
 1043000    3.1532491   -1.7759649  0.015080809   -1.7608841 
 1044000    4.2202096     -1.78135  0.020183681   -1.7611663 
 1045000    3.8348135   -1.7809389  0.018340476   -1.7625984 
 1046000     4.515566   -1.7757139   0.02159626   -1.7541177 
 1047000    4.0348791   -1.7773359  0.019297315   -1.7580386 
 1048000    4.0416637   -1.7772793  0.019329763   -1.7579495 
 1049000    4.5962344   -1.7787693  0.021982067   -1.7567872 
 1050000    4.2848549   -1.7776162  0.020492856   -1.7571234 
 1051000    3.4993843    -1.773125  0.016736244   -1.7563887 
 1052000    3.6483725   -1.7764312  0.017448799   -1.7589824 
 1053000    3.3459325    -1.781272  0.016002342   -1.7652696 
 1054000    3.4197249   -1.7789672  0.016355263   -1.7626119 
 1055000    4.1541591   -1.7755404  0.019867787   -1.7556726 
 1056000    4.4287277   -1.7798079  0.021180946   -1.7586269 
 1057000    3.3641531   -1.7806621  0.016089484   -1.7645726 
 1058000    3.2125086   -1.7799539  0.015364225   -1.7645897 
 1059000    3.5340119   -1.7854667  0.016901855   -1.7685649 
 1060000    2.1541898   -1.7812429  0.010302683   -1.7709402 
 1061000    4.5634036   -1.7807409   0.02182505   -1.7589159 
 1062000    3.7637868   -1.7794546  0.018000782   -1.7614539 
 1063000    3.6975798   -1.7789912  0.017684139   -1.7613071 
 1064000    4.1898523   -1.7815582  0.020038494   -1.7615197 
 1065000    3.2919191   -1.7787968  0.015744016   -1.7630527 
 1066000    3.5992899   -1.7764356  0.017214055   -1.7592215 
 1067000    4.3470858   -1.7819891  0.020790483   -1.7611986 
 1068000    3.4964794   -1.7783854  0.016722351   -1.7616631 
 1069000    4.4141549   -1.7757033  0.021111249   -1.7545921 
 1070000     4.206825   -1.7814177  0.020119668    -1.761298 
 1071000    3.4001574   -1.7788061  0.016261679   -1.7625445 
 1072000    3.0599043   -1.7780828  0.014634376   -1.7634484 
 1073000    3.3756526   -1.7825505  0.016144482   -1.7664061 
 1074000    2.8970045   -1.7782077  0.013855287   -1.7643524 
 1075000    3.3695967    -1.782779  0.016115519   -1.7666635 
 1076000    3.3331796    -1.778925  0.015941349   -1.7629837 
 1077000    3.1794714    -1.781464   0.01520622   -1.7662578 
 1078000    3.6946138   -1.7815256  0.017669954   -1.7638556 
 1079000    2.8667839   -1.7836494  0.013710753   -1.7699386 
 1080000     2.274399   -1.7839208  0.010877598   -1.7730432 
 1081000    2.9369012   -1.7846658  0.014046098   -1.7706197 
 1082000      2.28709   -1.7822835  0.010938294   -1.7713452 
 1083000     2.938451   -1.7861728   0.01405351   -1.7721193 
 1084000    3.2156832   -1.7818698  0.015379408   -1.7664904 
 1085000    2.2586927   -1.7859098  0.010802481   -1.7751073 
 1086000    1.9376622   -1.7860018 0.0092671124   -1.7767347 
 1087000    1.9262585   -1.7842828 0.0092125727   -1.7750702 
 1088000    3.5729629   -1.7827003  0.017088143   -1.7656121 
 1089000    3.1156466   -1.7799741  0.014900971   -1.7650731 
 1090000    2.9401253   -1.7798979  0.014061518   -1.7658364 
 1091000    4.0992432   -1.7784848  0.019605144   -1.7588797 
 1092000    2.9634477   -1.7809434   0.01417306   -1.7667703 
 1093000     4.078037   -1.7802674  0.019503723   -1.7607637 
 1094000    3.0551001    -1.782584  0.014611399   -1.7679726 
 1095000    3.5319171   -1.7756676  0.016891836   -1.7587758 
 1096000    3.6095755   -1.7797028  0.017263247   -1.7624395 
 1097000    3.9325498    -1.783487  0.018807912   -1.7646791 
 1098000    2.6335376    -1.786422  0.012595224   -1.7738268 
 1099000     2.452707   -1.7874334  0.011730379    -1.775703 
 1100000    2.4817702   -1.7887663  0.011869377    -1.776897 
 1101000    2.3876727   -1.7875326  0.011419344   -1.7761133 
 1102000    1.8369009   -1.7875309 0.0087852087   -1.7787457 
 1103000    1.9306587   -1.7883854 0.0092336175   -1.7791518 
 1104000     1.906183   -1.7900606  0.009116559    -1.780944 
 1105000     2.136725   -1.7901668  0.010219155   -1.7799477 
 1106000    1.9755966   -1.7886962 0.0094485386   -1.7792477 
 1107000    2.3036091    -1.788977  0.011017299   -1.7779597 
 1108000    1.8164996   -1.7909318 0.0086876369   -1.7822442 
 1109000    2.3986556   -1.7871355  0.011471871   -1.7756637 
 1110000    2.8757684   -1.7853767  0.013753723    -1.771623 
 1111000    2.6745622   -1.7853608  0.012791429   -1.7725693 
 1112000    2.6235899   -1.7861366  0.012547647    -1.773589 
 1113000    2.3154927   -1.7862043  0.011074134   -1.7751302 
 1114000    2.6044298   -1.7886891  0.012456012   -1.7762331 
 1115000     2.439053   -1.7865068  0.011665077   -1.7748417 
 1116000     2.437153   -1.7838071   0.01165599   -1.7721511 
 1117000    2.6732231   -1.7812806  0.012785025   -1.7684956 
 1118000    3.0100834   -1.7794795  0.014396101   -1.7650834 
 1119000    3.1244215   -1.7770517  0.014942938   -1.7621088 
 1120000    2.8081347   -1.7799904  0.013430256   -1.7665601 
 1121000     2.934444     -1.77899  0.014034346   -1.7649557 
 1122000    2.8517659   -1.7814239  0.013638928    -1.767785 
 1123000    2.8984919   -1.7791906  0.013862401   -1.7653282 
 1124000    4.6347608   -1.7780326  0.022166324   -1.7558663 
 1125000    3.7129757   -1.7755443  0.017757772   -1.7577865 
 1126000    3.7986058   -1.7768471  0.018167308   -1.7586798 
 1127000    4.0494319   -1.7803812  0.019366916   -1.7610143 
 1128000    3.7147073   -1.7738119  0.017766053   -1.7560458 
 1129000    3.0715574   -1.7774721  0.014690108    -1.762782 
 1130000    4.1143899   -1.7776902  0.019677585   -1.7580127 
 1131000    3.7898812   -1.7824586  0.018125582    -1.764333 
 1132000     3.375756   -1.7819434  0.016144976   -1.7657984 
 1133000      3.20077   -1.7784346  0.015308084   -1.7631265 
 1134000     3.071246   -1.7758469  0.014688619   -1.7611583 
 1135000    3.1495113    -1.780601  0.015062933   -1.7655381 
 1136000    3.3512322   -1.7789981  0.016027688   -1.7629704 
 1137000    3.5429697   -1.7796006  0.016944697   -1.7626559 
 1138000    3.9391714   -1.7747498  0.018839581   -1.7559103 
 1139000      3.70426   -1.7768175  0.017716088   -1.7591014 
 1140000    6.1341667   -1.7613767  0.029337421   -1.7320393 
 1141000    3.5922068   -1.7771068  0.017180179   -1.7599267 
 1142000    5.4878029    -1.770741  0.026246106   -1.7444949 
 1143000    5.8420215   -1.7711092    0.0279402    -1.743169 
 1144000    4.4901169   -1.7655817  0.021474547   -1.7441072 
 1145000    5.9368776   -1.7710665  0.028393861   -1.7426726 
 1146000    5.5685027   -1.7672859  0.026632062   -1.7406539 
 1147000    5.8865836   -1.7714272  0.028153324   -1.7432738 
 1148000    5.5324185   -1.7683824  0.026459485   -1.7419229 
 1149000    4.5610102   -1.7770221  0.021813603   -1.7552085 
 1150000    6.1668025   -1.7670945  0.029493506    -1.737601 
 1151000    5.1749731   -1.7743108  0.024749958   -1.7495609 
 1152000    4.9688824   -1.7677707  0.023764303   -1.7440064 
 1153000    5.1245878   -1.7742052  0.024508984   -1.7496963 
 1154000    4.5775776    -1.765143  0.021892839   -1.7432501 
 1155000    4.7051758   -1.7664208  0.022503093   -1.7439177 
 1156000    4.5762344   -1.7688062  0.021886415   -1.7469198 
 1157000    5.0107804   -1.7734124  0.023964685   -1.7494477 
 1158000    5.3834279   -1.7734365  0.025746919   -1.7476896 
 1159000    5.5610235   -1.7685535  0.026596292   -1.7419572 
 1160000    7.4287207    -1.762025  0.035528788   -1.7264962 
 1161000    8.5116885   -1.7636577  0.040708217   -1.7229495 
 1162000    7.9750629   -1.7608403  0.038141738   -1.7226986 
 1163000    6.6398593   -1.7638543   0.03175596   -1.7320983 
 1164000    6.3730864   -1.7657878  0.030480085   -1.7353077 
 1165000    7.3245778   -1.7565682  0.035030712   -1.7215375 
 1166000    6.2138198   -1.7591269  0.029718372   -1.7294086 
 1167000    8.4233946   -1.7425591  0.040285941   -1.7022731 
 1168000    9.8393983   -1.7336501  0.047058156   -1.6865919 
 1169000    14.274149   -1.7243171  0.068267909   -1.6560492 
 1170000    11.480385   -1.7440477  0.054906381   -1.6891413 
 1171000    10.715452   -1.7568189  0.051247993   -1.7055709 
 1172000    6.8290641   -1.7482977  0.032660855   -1.7156369 
 1173000    10.032175   -1.7486078  0.047980136   -1.7006277 
 1174000    7.6780422   -1.7423487    0.0367212   -1.7056275 
 1175000    8.0061602   -1.7526685  0.038290465   -1.7143781 
 1176000    9.6514713   -1.7464251  0.046159371   -1.7002657 
 1177000    10.015545   -1.7390151  0.047900598   -1.6911145 
 1178000    8.1344089   -1.7454547   0.03890383   -1.7065509 
 1179000    9.2551223   -1.7573483  0.044263782   -1.7130845 
 1180000    10.419986   -1.7495943  0.049834888   -1.6997595 
 1181000    9.3802962   -1.7435492  0.044862443   -1.6986867 
 1182000    8.0652802   -1.7446264  0.038573214   -1.7060532 
 1183000    10.037747    -1.751985  0.048006781   -1.7039782 
 1184000    9.3448743   -1.7491322  0.044693033   -1.7044392 
 1185000    10.836644   -1.7418682  0.051827609   -1.6900405 
 1186000    11.003676   -1.7516577  0.052626462   -1.6990312 
 1187000    8.3867052   -1.7426157  0.040110469   -1.7025052 
 1188000    8.3789337   -1.7551221  0.040073301   -1.7150488 
 1189000    11.606553   -1.7520795  0.055509794   -1.6965697 
 1190000    9.2503013   -1.7542559  0.044240726   -1.7100152 
 1191000    5.4021475   -1.7590962  0.025836448   -1.7332598 
 1192000    7.3883873   -1.7606922  0.035335889   -1.7253563 
 1193000    6.8058536   -1.7555232  0.032549848   -1.7229733 
 1194000    6.5938957   -1.7603886  0.031536133   -1.7288525 
 1195000    6.0306227   -1.7502446  0.028842209   -1.7214024 
 1196000    7.7732013   -1.7462863   0.03717631     -1.70911 
 1197000    11.008379   -1.7351812  0.052648955   -1.6825323 
 1198000    14.264519   -1.7379188   0.06822185    -1.669697 
 1199000    12.557047   -1.7275135  0.060055651   -1.6674579 
 1200000    12.943806   -1.7289618  0.061905375   -1.6670564 
 1201000    10.863238   -1.7446929  0.051954799   -1.6927381 
 1202000    8.6115643   -1.7425554  0.041185886   -1.7013695 
 1203000    10.736652   -1.7426759  0.051349383   -1.6913265 
 1204000      8.74114   -1.7488807  0.041805598   -1.7070751 
 1205000    8.7207688   -1.7511762   0.04170817   -1.7094681 
 1206000     8.327079    -1.746962  0.039825299   -1.7071367 
 1207000    10.566968   -1.7454001  0.050537849   -1.6948623 
 1208000    9.2078549   -1.7460808   0.04403772   -1.7020431 
 1209000    11.707537   -1.7503841  0.055992762   -1.6943913 
 1210000      10.2572   -1.7490073  0.049056346    -1.699951 
 1211000    8.4866913   -1.7481405  0.040588665   -1.7075519 
 1212000    9.2199962   -1.7471558  0.044095788     -1.70306 
 1213000    5.9173149   -1.7567094    0.0283003   -1.7284091 
 1214000    6.9677142   -1.7661379  0.033323967   -1.7328139 
 1215000    8.7932923    -1.768267  0.042055023    -1.726212 
 1216000    4.9967928   -1.7548943  0.023897788   -1.7309965 
 1217000     6.325576   -1.7672481   0.03025286   -1.7369952 
 1218000     5.675259   -1.7671488  0.027142637   -1.7400062 
 1219000    7.2544723   -1.7690681  0.034695423   -1.7343727 
 1220000    5.6114257    -1.758867  0.026837347   -1.7320297 
 1221000    5.3657651   -1.7576141  0.025662444   -1.7319517 
 1222000    6.2819603   -1.7669166  0.030044263   -1.7368724 
 1223000    7.8736999   -1.7585321  0.037656957   -1.7208751 
 1224000    6.0240732   -1.7576775  0.028810885   -1.7288666 
 1225000    11.286858   -1.7500056  0.053980816   -1.6960247 
 1226000     8.700501   -1.7469921  0.041611237   -1.7053808 
 1227000    10.653254   -1.7363429  0.050950522   -1.6853924 
 1228000    8.4427364   -1.7606158  0.040378445   -1.7202373 
 1229000    8.9983825   -1.7521101  0.043035893   -1.7090742 
 1230000      9.39603   -1.7410498  0.044937691   -1.6961121 
 1231000     9.819718   -1.7507538  0.046964032   -1.7037897 
 1232000    7.8583187   -1.7462623  0.037583394   -1.7086789 
 1233000    7.3094853   -1.7569602   0.03495853   -1.7220017 
 1234000    7.7414283   -1.7606426  0.037024351   -1.7236182 
 1235000    7.0347647   -1.7553925  0.033644644   -1.7217478 
 1236000    7.7202221   -1.7619774   0.03692293   -1.7250545 
 1237000    5.0076642   -1.7603901  0.023949782   -1.7364403 
 1238000    6.1755457    -1.765731  0.029535321   -1.7361956 
 1239000    6.4889761   -1.7601935  0.031034342   -1.7291591 
 1240000    6.3776694   -1.7588938  0.030502003   -1.7283918 
 1241000    5.1888211   -1.7602627  0.024816188   -1.7354465 
 1242000    7.0576775   -1.7573271  0.033754227   -1.7235729 
 1243000    6.9765593   -1.7665283  0.033366269    -1.733162 
 1244000    6.5345702   -1.7632693  0.031252401   -1.7320169 
 1245000    6.3846853   -1.7638558  0.030535558   -1.7333202 
 1246000     7.347243   -1.7560959  0.035139111   -1.7209568 
 1247000    5.7633532   -1.7598401  0.027563959   -1.7322761 
 1248000    5.9608553   -1.7653268  0.028508538   -1.7368183 
 1249000    6.9566605   -1.7489318  0.033271101   -1.7156607 
 1250000    7.2863432   -1.7647286   0.03484785   -1.7298807 
 1251000     6.431529   -1.7708625  0.030759594   -1.7401029 
 1252000    7.5347682   -1.7673578  0.036035973   -1.7313218 
 1253000    7.7639892   -1.7535366  0.037132252   -1.7164044 
 1254000     6.983432   -1.7648677  0.033399139   -1.7314686 
 1255000    8.0129169   -1.7742953   0.03832278   -1.7359726 
 1256000    5.0065767   -1.7743663  0.023944581   -1.7504218 
 1257000    4.7977529   -1.7612239  0.022945855   -1.7382781 
 1258000     5.539008   -1.7639512     0.026491   -1.7374602 
 1259000     5.500203   -1.7764893   0.02630541   -1.7501839 
 1260000    4.7958303   -1.7757691   0.02293666   -1.7528324 
 1261000    3.9681007   -1.7724335  0.018977939   -1.7534556 
 1262000    4.9925691    -1.773288  0.023877588   -1.7494104 
 1263000    5.2649382   -1.7677096  0.025180227   -1.7425293 
 1264000    5.1772583   -1.7727731  0.024760887   -1.7480122 
[...]
 4699000    2.4664593    -1.786888  0.011796151   -1.7750918 
 4700000    2.5927197   -1.7823707  0.012400007   -1.7699707 
 4701000    3.0405106   -1.7860415  0.014541623   -1.7714999 
 4702000     2.618968   -1.7852939  0.012525543   -1.7727683 
 4703000    2.7980073   -1.7846461  0.013381821   -1.7712643 
 4704000    3.1916152   -1.7872099    0.0152643   -1.7719456 
 4705000    1.8105396   -1.7886702 0.0086591325    -1.780011 
 4706000    1.9898789   -1.7844974 0.0095168455   -1.7749806 
 4707000    1.7485504   -1.7891445 0.0083626617   -1.7807818 
 4708000    1.4349068   -1.7872056 0.0068626215    -1.780343 
 4709000     2.034052   -1.7900616 0.0097281086   -1.7803335 
 4710000    1.9686816   -1.7883615 0.0094154663    -1.778946 
 4711000    2.1977894   -1.7890295  0.010511204   -1.7785183 
 4712000    2.5115159   -1.7876403   0.01201164   -1.7756286 
 4713000    2.0248441   -1.7892416 0.0096840708   -1.7795576 
 4714000    1.8084939   -1.7859749 0.0086493489   -1.7773255 
 4715000    2.2569224    -1.786085  0.010794014    -1.775291 
 4716000     2.037816     -1.78731 0.0097461105   -1.7775639 
 4717000    2.7221997   -1.7820158  0.013019261   -1.7689965 
 4718000    2.3193911   -1.7802726  0.011092779   -1.7691798 
 4719000    2.7948693   -1.7864724  0.013366813   -1.7731056 
 4720000    2.5291254   -1.7839993  0.012095859   -1.7719034 
 4721000    2.2178501   -1.7902049  0.010607146   -1.7795978 
 4722000    1.7987757   -1.7838362 0.0086028702   -1.7752333 
 4723000    2.2095985   -1.7874675  0.010567682   -1.7768998 
 4724000    2.6512013   -1.7860528  0.012679703   -1.7733731 
 4725000    3.0082352   -1.7851944  0.014387262   -1.7708072 
 4726000    3.4671168   -1.7858462  0.016581921   -1.7692643 
 4727000    1.6748066   -1.7878774 0.0080099725   -1.7798674 
 4728000    2.0315092    -1.787537 0.0097159472    -1.777821 
 4729000    2.0616251   -1.7897179 0.0098599805   -1.7798579 
 4730000    2.8605585   -1.7821953   0.01368098   -1.7685143 
 4731000    2.7910924   -1.7879061   0.01334875   -1.7745573 
 4732000    1.7380063   -1.7800959 0.0083122329   -1.7717836 
 4733000    2.5191721   -1.7880162  0.012048257    -1.775968 
 4734000    3.1803528   -1.7823211  0.015210436   -1.7671107 
 4735000    2.1147159   -1.7890322  0.010113894   -1.7789183 
 4736000    2.3768525   -1.7875037  0.011367595   -1.7761361 
 4737000    1.4301116   -1.7906745 0.0068396879   -1.7838348 
 4738000    2.9289852   -1.7891517  0.014008239   -1.7751435 
 4739000    1.9129732   -1.7882468 0.0091490341   -1.7790977 
 4740000    2.2097498   -1.7882917  0.010568405   -1.7777233 
 4741000    1.9603568   -1.7880851 0.0093756521   -1.7787095 
 4742000    2.1986718   -1.7898167  0.010515423   -1.7793012 
 4743000    2.1862433   -1.7884704  0.010455983   -1.7780144 
 4744000    2.2494473   -1.7871138  0.010758264   -1.7763556 
 4745000    2.4857366   -1.7881794  0.011888347    -1.776291 
 4746000    2.7893047   -1.7869963  0.013340199   -1.7736561 
 4747000    1.8041148   -1.7914385  0.008628405   -1.7828101 
 4748000    2.0498426   -1.7887875 0.0098036293   -1.7789839 
 4749000     1.626846    -1.787854 0.0077805949   -1.7800734 
 4750000    1.8265654   -1.7898573 0.0087357781   -1.7811215 
 4751000    2.1262256   -1.7888856  0.010168941   -1.7787167 
 4752000     1.698729   -1.7898217 0.0081243845   -1.7816973 
 4753000    1.8505553   -1.7848977 0.0088505125   -1.7760471 
 4754000    3.2965344    -1.786171  0.015766089   -1.7704049 
 4755000    1.9615591   -1.7874805 0.0093814023   -1.7780991 
 4756000    2.1572588   -1.7890176  0.010317361   -1.7787002 
 4757000     1.601092   -1.7881866 0.0076574234   -1.7805292 
 4758000    1.8718071   -1.7899156 0.0089521522   -1.7809634 
 4759000    1.7892283   -1.7884967 0.0085572086   -1.7799395 
 4760000    2.0012295   -1.7881503 0.0095711312   -1.7785791 
 4761000    1.8616222   -1.7868116 0.0089034415   -1.7779081 
 4762000    1.9656954   -1.7905983 0.0094011845   -1.7811971 
 4763000    2.0546369    -1.788523 0.0098265586   -1.7786965 
 4764000    2.4602486   -1.7905302  0.011766447   -1.7787638 
 4765000     2.373419   -1.7881814  0.011351174   -1.7768302 
 4766000    2.1971403   -1.7886088  0.010508099   -1.7781007 
 4767000    1.8791065   -1.7881608 0.0089870623   -1.7791737 
 4768000    2.0336156   -1.7925179 0.0097260218   -1.7827919 
 4769000    1.9518728   -1.7893154 0.0093350763   -1.7799803 
 4770000    2.5301688   -1.7909805   0.01210085   -1.7788797 
 4771000    2.3487591   -1.7876421  0.011233235   -1.7764089 
 4772000    1.9357506   -1.7916001   0.00925797   -1.7823421 
 4773000     2.111237   -1.7896959  0.010097256   -1.7795987 
 4774000    1.8702955   -1.7906658 0.0089449227   -1.7817209 
 4775000    2.8663441   -1.7896959   0.01370865   -1.7759873 
 4776000    2.2071529   -1.7899113  0.010555985   -1.7793553 
 4777000    2.0787442   -1.7865296 0.0099418547   -1.7765878 
 4778000    2.4991471   -1.7894353  0.011952484   -1.7774828 
 4779000    2.1201385   -1.7882945  0.010139828   -1.7781547 
 4780000    2.1596559   -1.7891361  0.010328825   -1.7788073 
 4781000    2.1709986   -1.7895959  0.010383073   -1.7792128 
 4782000     1.963085   -1.7900703 0.0093887001   -1.7806816 
 4783000    1.9016558   -1.7875483 0.0090949075   -1.7784534 
 4784000     1.789808   -1.7894866 0.0085599812   -1.7809266 
 4785000    1.8380242   -1.7871085 0.0087905812   -1.7783179 
 4786000    1.9126895   -1.7891795 0.0091476774   -1.7800318 
 4787000    2.1796763   -1.7877736  0.010424575    -1.777349 
 4788000    2.5676695   -1.7855095  0.012280201   -1.7732293 
 4789000    2.4908117   -1.7848354  0.011912619   -1.7729228 
 4790000    2.1071585   -1.7864925   0.01007775   -1.7764148 
 4791000    1.5702961   -1.7857673 0.0075101378   -1.7782571 
 4792000     1.385327   -1.7878241    0.0066255   -1.7811986 
 4793000    1.9755808   -1.7888662 0.0094484628   -1.7794178 
 4794000    2.9440511   -1.7848601  0.014080294   -1.7707798 
 4795000     2.416575    -1.783112  0.011557573   -1.7715544 
 4796000    2.2812059   -1.7860006  0.010910153   -1.7750904 
 4797000     2.363958    -1.783674  0.011305925    -1.772368 
 4798000    2.8179081   -1.7830356  0.013476999   -1.7695586 
 4799000    2.9747984   -1.7846631  0.014227346   -1.7704357 
 4800000     2.335272   -1.7819212  0.011168731   -1.7707525 
 4801000    2.9843663   -1.7853868  0.014273106   -1.7711137 
 4802000    3.1517851   -1.7826918  0.015073807    -1.767618 
 4803000    2.3784733   -1.7837206  0.011375347   -1.7723453 
 4804000    2.8596623   -1.7773147  0.013676693    -1.763638 
 4805000    2.3004033     -1.78511  0.011001967    -1.774108 
 4806000    2.4711362   -1.7839563  0.011818519   -1.7721378 
 4807000    2.6012569    -1.783446  0.012440837   -1.7710051 
 4808000    2.1840622   -1.7837323  0.010445551   -1.7732868 
 4809000    2.7224899   -1.7852976  0.013020649   -1.7722769 
 4810000    2.4555552   -1.7827994  0.011744001   -1.7710554 
 4811000    2.2249173   -1.7858228  0.010640946   -1.7751818 
 4812000    2.5463632   -1.7856628  0.012178301   -1.7734845 
 4813000    2.0711955   -1.7832105 0.0099057523   -1.7733047 
 4814000     2.660438   -1.7815597  0.012723878   -1.7688359 
 4815000    2.1718428   -1.7862248   0.01038711   -1.7758377 
 4816000    2.9392067   -1.7867482  0.014057125   -1.7726911 
 4817000    2.8668348   -1.7863971  0.013710997   -1.7726861 
 4818000    2.5389188   -1.7801037  0.012142697    -1.767961 
 4819000    2.5369564   -1.7834861  0.012133312   -1.7713528 
 4820000    2.5116403   -1.7846349  0.012012235   -1.7726226 
 4821000    2.9801735   -1.7876331  0.014253053     -1.77338 
 4822000    2.5728907   -1.7873321  0.012305172   -1.7750269 
 4823000    2.6158005   -1.7823256  0.012510394   -1.7698152 
 4824000    3.6337815   -1.7759242  0.017379016   -1.7585452 
 4825000    4.8814821   -1.7806657    0.0233463   -1.7573194 
 4826000    4.2795468   -1.7799431  0.020467469   -1.7594756 
 4827000    3.5298731   -1.7856832  0.016882061   -1.7688011 
 4828000    3.8400079   -1.7812413  0.018365319    -1.762876 
 4829000    4.0032985   -1.7717781  0.019146277   -1.7526318 
 4830000    5.3245559   -1.7698367  0.025465356   -1.7443714 
 4831000    5.0292332   -1.7753649  0.024052938   -1.7513119 
 4832000    4.7604607   -1.7750672    0.0227675   -1.7522997 
 4833000    3.5891532   -1.7722898  0.017165575   -1.7551242 
 4834000    5.8596027   -1.7698886  0.028024284   -1.7418643 
 4835000    5.4390315    -1.768973   0.02601285   -1.7429601 
 4836000    4.5035537   -1.7682323   0.02153881   -1.7466935 
 4837000    4.9509473   -1.7710345  0.023678526    -1.747356 
 4838000    4.9550834   -1.7722745  0.023698308   -1.7485762 
 4839000    4.2753059    -1.768514  0.020447186   -1.7480668 
 4840000    6.0038565   -1.7729629  0.028714196   -1.7442487 
 4841000    5.8943381   -1.7740838  0.028190411   -1.7458934 
 4842000    4.2257868    -1.783462  0.020210355   -1.7632516 
 4843000    3.7699408   -1.7805879  0.018030215   -1.7625577 
 4844000    4.1711456    -1.780333  0.019949027    -1.760384 
 4845000    4.5893058   -1.7674255   0.02194893   -1.7454766 
 4846000    5.1938435   -1.7733631  0.024840207   -1.7485229 
 4847000    4.5127579   -1.7740168   0.02158283    -1.752434 
 4848000    4.6160074   -1.7791542  0.022076634   -1.7570775 
 4849000    5.2082556   -1.7724653  0.024909135   -1.7475562 
 4850000    4.4638881   -1.7750937  0.021349104   -1.7537446 
 4851000    4.5580193   -1.7644233  0.021799299    -1.742624 
 4852000    4.8060646   -1.7615772  0.022985607   -1.7385916 
 4853000    6.0625703   -1.7690432  0.028995003   -1.7400482 
 4854000    5.9290012   -1.7551997  0.028356192   -1.7268435 
 4855000    4.4491825   -1.7708832  0.021278773   -1.7496044 
 4856000    6.9386316   -1.7606077  0.033184876   -1.7274228 
 4857000    7.1362162   -1.7650926  0.034129848   -1.7309628 
 4858000    7.0656915   -1.7570061  0.033792555   -1.7232136 
 4859000    6.2779862   -1.7620759  0.030025256   -1.7320507 
 4860000    5.8263904   -1.7624171  0.027865442   -1.7345516 
 4861000    6.5894939   -1.7654099  0.031515081   -1.7338948 
 4862000    6.1394329   -1.7532544  0.029362608   -1.7238918 
 4863000    6.6429652   -1.7597571  0.031770814   -1.7279863 
 4864000     6.810639    -1.764957  0.032572735   -1.7323843 
 4865000    7.3530638   -1.7458417   0.03516695   -1.7106747 
 4866000    6.2552656   -1.7604529  0.029916592   -1.7305363 
 4867000    7.4148734   -1.7663639  0.035462562   -1.7309013 
 4868000    6.3473642   -1.7554378  0.030357065   -1.7250807 
 4869000     7.429159   -1.7627893  0.035530884   -1.7272585 
 4870000    5.9949605   -1.7603283   0.02867165   -1.7316566 
 4871000    6.0138364   -1.7653074  0.028761926   -1.7365455 
 4872000    8.1173222   -1.7586626  0.038822111   -1.7198405 
 4873000    7.0048516   -1.7639927  0.033501581   -1.7304911 
 4874000    6.6907124   -1.7668662  0.031999171   -1.7348671 
 4875000    6.8040498    -1.766034  0.032541221   -1.7334928 
 4876000    6.1684802   -1.7520676   0.02950153   -1.7225661 
 4877000    6.9295951   -1.7614963  0.033141657   -1.7283547 
 4878000    8.0608917   -1.7668181  0.038552225   -1.7282659 
 4879000    7.1501847   -1.7580945  0.034196655   -1.7238978 
 4880000    6.4222924   -1.7622141  0.030715418   -1.7314987 
 4881000     6.993888   -1.7569002  0.033449146   -1.7234511 
 4882000    7.1191283   -1.7560731  0.034048124    -1.722025 
 4883000    5.3496037   -1.7673591   0.02558515   -1.7417739 
 4884000    7.6989033   -1.7608372   0.03682097   -1.7240162 
 4885000    7.9761817   -1.7644552  0.038147089   -1.7263081 
 4886000    7.1482386   -1.7636167  0.034187347   -1.7294293 
 4887000    8.0638135   -1.7597704  0.038566199   -1.7212043 
 4888000    6.8976991   -1.7601322  0.032989111   -1.7271431 
 4889000    10.344022    -1.734836   0.04947158   -1.6853644 
 4890000    8.8782015   -1.7550091  0.042461112    -1.712548 
 4891000    9.0642247   -1.7491384  0.043350791   -1.7057876 
 4892000    8.1418166   -1.7467596  0.038939259   -1.7078204 
 4893000    8.1289013   -1.7534635  0.038877489    -1.714586 
 4894000    9.1948081   -1.7384193  0.043975322    -1.694444 
 4895000    9.9522184   -1.7548273  0.047597732   -1.7072296 
 4896000    9.7098261   -1.7480669  0.046438461   -1.7016285 
 4897000    9.2379388   -1.7418855    0.0441816   -1.6977039 
 4898000    10.310094    -1.754876  0.049309318   -1.7055667 
 4899000    11.234642   -1.7410521  0.053731083   -1.6873211 
 4900000    8.6570545   -1.7551448  0.041403448   -1.7137414 
 4901000    10.601074   -1.7530896  0.050700965   -1.7023886 
 4902000    11.396645   -1.7573909  0.054505881    -1.702885 
 4903000     9.352002   -1.7556358  0.044727122   -1.7109086 
 4904000    8.9168735   -1.7515437  0.042646066   -1.7088977 
 4905000    9.7651253   -1.7494927  0.046702936   -1.7027897 
 4906000    10.477616   -1.7458187   0.05011051   -1.6957082 
 4907000    9.3990172   -1.7368129  0.044951978    -1.691861 
 4908000    9.3600926   -1.7562422  0.044765816   -1.7114764 
 4909000    8.5806072   -1.7450812  0.041037829   -1.7040433 
 4910000    10.099078   -1.7572047  0.048300106   -1.7089046 
 4911000    10.238097   -1.7465754  0.048964982   -1.6976104 
 4912000    8.4961383   -1.7544032  0.040633847   -1.7137694 
 4913000     10.54064   -1.7521164  0.050411933   -1.7017045 
 4914000    8.7960728   -1.7453725  0.042068321   -1.7033042 
 4915000     8.806784   -1.7494963  0.042119548   -1.7073768 
 4916000      8.49115   -1.7468548  0.040609989   -1.7062448 
 4917000    10.347138   -1.7431535  0.049486482    -1.693667 
 4918000    8.6799429   -1.7450697  0.041512915   -1.7035568 
 4919000    9.4306728    -1.742277  0.045103375   -1.6971736 
 4920000    9.7684418   -1.7552994  0.046718797   -1.7085806 
 4921000    10.891439   -1.7542839  0.052089675   -1.7021942 
 4922000    7.8436568   -1.7469955  0.037513272   -1.7094822 
 4923000    8.9012725   -1.7531094  0.042571452    -1.710538 
 4924000    11.000358   -1.7470154  0.052610591   -1.6944049 
 4925000    9.7039403   -1.7466168  0.046410311   -1.7002065 
 4926000    7.6195558   -1.7560652  0.036441481   -1.7196237 
 4927000    9.4638958   -1.7435614  0.045262268   -1.6982992 
 4928000    6.7069292   -1.7558151   0.03207673   -1.7237384 
 4929000    9.5008242   -1.7512008  0.045438883    -1.705762 
 4930000    9.7478919   -1.7561156  0.046620515   -1.7094951 
 4931000    7.0152883   -1.7334023  0.033551496   -1.6998508 
 4932000    8.7580369   -1.7601873   0.04188641   -1.7183009 
 4933000     8.500896   -1.7553756  0.040656601    -1.714719 
 4934000    8.3272264   -1.7437276  0.039826004   -1.7039016 
 4935000    8.7422375   -1.7411594  0.041810847   -1.6993485 
 4936000       8.1227   -1.7453337  0.038847831   -1.7064858 
 4937000    7.8286953   -1.7456109  0.037441717   -1.7081692 
 4938000    8.8935101   -1.7427554  0.042534327   -1.7002211 
 4939000    9.2824946   -1.7538155  0.044394694   -1.7094208 
 4940000    9.5326855   -1.7466854  0.045591264   -1.7010941 
 4941000    8.5245371   -1.7629291  0.040769667   -1.7221594 
 4942000    7.0636837   -1.7422013  0.033782953   -1.7084184 
 4943000    8.7072289   -1.7450674  0.041643414    -1.703424 
 4944000    9.1353783   -1.7611964  0.043691092   -1.7175053 
 4945000    7.0218297   -1.7489412  0.033582781   -1.7153584 
 4946000    10.254594   -1.7453555   0.04904388   -1.6963116 
 4947000    7.8888958   -1.7558328  0.037729633   -1.7181032 
 4948000    7.6400954   -1.7414723  0.036539714   -1.7049326 
 4949000    8.6827789   -1.7446308  0.041526478   -1.7031044 
 4950000     9.820537     -1.72661  0.046967949   -1.6796421 
 4951000    14.112412   -1.7242775  0.067494377   -1.6567832 
 4952000    12.559737   -1.7442846  0.060068515   -1.6842161 
 4953000    9.5245408    -1.762654  0.045552311   -1.7171016 
 4954000    6.4099117   -1.7652573  0.030656206   -1.7346011 
 4955000      6.41706   -1.7550588  0.030690394   -1.7243684 
 4956000    5.8318711   -1.7596469  0.027891655   -1.7317553 
 4957000    8.1270591   -1.7625688  0.038868679   -1.7237001 
 4958000    9.0588792   -1.7465424  0.043325225   -1.7032172 
 4959000    9.4180319   -1.7501816  0.045042918   -1.7051387 
 4960000    11.321079   -1.7483313  0.054144482   -1.6941868 
 4961000    7.4233307     -1.75226   0.03550301    -1.716757 
 4962000    8.4270486   -1.7559817  0.040303417   -1.7156783 
 4963000    6.8482056    -1.761302  0.032752402   -1.7285496 
 4964000    5.8674225   -1.7676694  0.028061684   -1.7396078 
 4965000     7.563165    -1.762469  0.036171785   -1.7262973 
 4966000    6.1628396   -1.7621846  0.029474553   -1.7327101 
 4967000    7.6740535   -1.7635384  0.036702123   -1.7268363 
 4968000     5.427706   -1.7497621  0.025958684   -1.7238034 
 4969000    5.0974471    -1.767178   0.02437918   -1.7427988 
 4970000    8.7215325   -1.7620025  0.041711823   -1.7202907 
 4971000     5.472869   -1.7620382  0.026174682   -1.7358635 
 4972000    6.3435002   -1.7556387  0.030338585   -1.7253001 
 4973000    5.6784128   -1.7542437  0.027157721    -1.727086 
 4974000    8.3905458   -1.7624157  0.040128837   -1.7222868 
 4975000    7.5598197   -1.7622452  0.036155786   -1.7260894 
 4976000    5.0467282    -1.762751   0.02413661   -1.7386144 
 4977000    8.0373546   -1.7626888  0.038439656   -1.7242492 
 4978000    7.0869037    -1.766556  0.033894005   -1.7326619 
 4979000    8.2676324   -1.7495483  0.039540988   -1.7100073 
 4980000    9.0271493   -1.7536072  0.043173473   -1.7104338 
 4981000    7.2385262   -1.7363142  0.034619159    -1.701695 
 4982000    7.9059071    -1.737849  0.037810992    -1.700038 
 4983000    10.204504   -1.7595163   0.04880432    -1.710712 
 4984000    7.7134702   -1.7463164  0.036890638   -1.7094258 
 4985000     8.986231   -1.7455986  0.042977776   -1.7026208 
 4986000    8.4913669   -1.7456002  0.040611027   -1.7049891 
 4987000     6.526697   -1.7486426  0.031214747   -1.7174278 
 4988000    8.5407299   -1.7479953  0.040847111   -1.7071482 
 4989000    7.7028784   -1.7509918  0.036839982   -1.7141518 
 4990000    8.0595625   -1.7441154  0.038545868   -1.7055696 
 4991000    8.5615083   -1.7392768  0.040946487   -1.6983303 
 4992000    8.0405923   -1.7516181  0.038455141    -1.713163 
 4993000    9.7273118   -1.7437252  0.046522088   -1.6972031 
 4994000    8.7302557    -1.751555  0.041753542   -1.7098015 
 4995000    11.297765   -1.7465709  0.054032979   -1.6925379 
 4996000    10.457915   -1.7549697  0.050016288   -1.7049534 
 4997000    8.4500955   -1.7536624  0.040413641   -1.7132488 
 4998000    8.0048293   -1.7467356  0.038284099   -1.7084515 
 4999000     5.770382   -1.7443481  0.027597575   -1.7167505 
 5000000    7.7142145    -1.741359  0.036894198   -1.7044648 
Loop time of 1276.16 on 1 procs for 5000000 steps with 38 atoms

Performance: 338.516 ns/day, 0.071 hours/ns, 3918.010 timesteps/s
97.6% CPU use with 1 MPI tasks x no OpenMP threads

MPI task timing breakdown:
Section |  min time  |  avg time  |  max time  |%varavg| %total
---------------------------------------------------------------
Pair    | 1194.6     | 1194.6     | 1194.6     |   0.0 | 93.61
Neigh   | 2.4557e-05 | 2.4557e-05 | 2.4557e-05 |   0.0 |  0.00
Comm    | 1.173      | 1.173      | 1.173      |   0.0 |  0.09
Output  | 0.19957    | 0.19957    | 0.19957    |   0.0 |  0.02
Modify  | 17.111     | 17.111     | 17.111     |   0.0 |  1.34
Other   |            | 63.08      |            |       |  4.94

Nlocal:        38.0000 ave          38 max          38 min
Histogram: 1 0 0 0 0 0 0 0 0 0
Nghost:        0.00000 ave           0 max           0 min
Histogram: 1 0 0 0 0 0 0 0 0 0
Neighs:        0.00000 ave           0 max           0 min
Histogram: 1 0 0 0 0 0 0 0 0 0

Total # of neighbors = 0
Ave neighs/atom = 0.0000000
Neighbor list builds = 70
Dangerous builds = 0
neighbor            0.3        bin



Please see the log.cite file for references relevant to this simulation

Total wall time: 0:21:16
