LAMMPS (29 Oct 2020)
Processor partition = 7
package gpu 1
# Initialization
units            metal
dimension        3
boundary         p p p
atom_style       atomic

#
#  region for the wall
#

region rs sphere 0 0 0 12.66

read_data        input.dat
Reading data file ...
  orthogonal box = (-50.000000 -50.000000 -50.000000) to (50.000000 50.000000 50.000000)
  1 by 1 by 1 MPI processor grid
  reading atoms ...
  38 atoms
  read_data CPU = 0.011 seconds

mass 1 39.948

pair_style lj/cut 8.5
pair_coeff 1 1 0.01042 3.405  8.5
variable i equal part

variable t world  2.00    2.60    3.64    5    6.63    9.12   12.07   16   21.97   26.83   32.76   40.00
velocity        all        create        $t        293288
velocity        all        create        16        293288
velocity all zero linear
velocity all zero angular
fix        1        all        nvt        temp        $t        $t        0.1
fix        1        all        nvt        temp        16        $t        0.1
fix        1        all        nvt        temp        16        16        0.1
fix  2 all wall/region rs harmonic 2.0 0.0 0.4


thermo         1000
thermo_style        custom        step  temp     pe ke etotal
thermo_modify       line        one

restart 5000000 restart.*
dump         2 all xyz 10000 structure_$i.xyz
dump         2 all xyz 10000 structure_7.xyz
dump_modify  2 element "Ar" sort id

temper 5000000 1000 $t 1 3678 3490
temper 5000000 1000 16 1 3678 3490
Per MPI rank memory allocation (min/avg/max) = 3.436 | 3.436 | 3.436 Mbytes
Step Temp PotEng KinEng TotEng 
       0    15.874836   -1.7950808  0.075923393   -1.7191574 
    1000    14.606853   -1.6711311  0.069859104    -1.601272 
    2000    11.856869   -1.6896954  0.056706965   -1.6329884 
    3000    16.777836   -1.7361591  0.080242105    -1.655917 
    4000    12.328418   -1.7271863  0.058962206   -1.6682241 
    5000    12.428843   -1.7278718  0.059442501   -1.6684293 
    6000    12.491441    -1.711614  0.059741881   -1.6518721 
    7000    12.167714   -1.7317481  0.058193618   -1.6735545 
    8000    16.112085   -1.7292373  0.077058068   -1.6521792 
    9000     11.12394   -1.7315178  0.053201636   -1.6783162 
   10000    10.753161   -1.7367645  0.051428339   -1.6853361 
   11000    12.688959   -1.7303114  0.060686537   -1.6696249 
   12000    15.910557    -1.736946  0.076094233   -1.6608518 
   13000    10.386172   -1.7353693  0.049673168   -1.6856961 
   14000    11.316573   -1.7167878  0.054122929   -1.6626649 
   15000     12.45178   -1.7335357    0.0595522   -1.6739835 
   16000    15.078104   -1.7318613  0.072112925   -1.6597484 
   17000    10.946556   -1.7257793  0.052353276    -1.673426 
   18000    14.906223   -1.6937161  0.071290881   -1.6224252 
   19000    15.545903   -1.6989521   0.07435023   -1.6246018 
   20000    17.550983   -1.7205298  0.083939777   -1.6365901 
   21000    16.073406   -1.7091686  0.076873077   -1.6322956 
   22000    14.200139   -1.7076417  0.067913943   -1.6397278 
   23000      13.6649   -1.6942912  0.065354096   -1.6289371 
   24000    12.773075   -1.7186368  0.061088834   -1.6575479 
   25000    17.027895   -1.7124647  0.081438043   -1.6310266 
   26000    15.256804   -1.6925275  0.072967578   -1.6195599 
   27000    13.212029   -1.7117635  0.063188184   -1.6485754 
   28000     15.03204   -1.6867223  0.071892616   -1.6148297 
   29000    13.320116   -1.7319975  0.063705122   -1.6682924 
   30000    12.646203   -1.7293256   0.06048205   -1.6688435 
   31000    10.291139   -1.7372086  0.049218661     -1.68799 
   32000    13.104371   -1.7240481  0.062673299   -1.6613748 
   33000    12.320723   -1.7197846  0.058925401   -1.6608592 
   34000    13.612039   -1.7286981  0.065101282   -1.6635968 
   35000    12.447963   -1.7438478  0.059533941   -1.6843139 
   36000    12.203826   -1.7239016  0.058366328   -1.6655353 
   37000    16.992512   -1.7168428   0.08126882   -1.6355739 
   38000    16.183078   -1.7108813  0.077397599   -1.6334837 
   39000    17.120279   -1.7248966  0.081879879   -1.6430167 
   40000    10.275288   -1.7275177  0.049142855   -1.6783748 
   41000    11.841143    -1.736712  0.056631751   -1.6800802 
   42000    12.630692   -1.7152185  0.060407869   -1.6548106 
   43000    10.810006   -1.7361983   0.05170021   -1.6844981 
   44000    9.8941779   -1.7324726  0.047320146   -1.6851525 
   45000    8.9885936   -1.7327972  0.042989076   -1.6898082 
   46000    12.802733   -1.7260397  0.061230673    -1.664809 
   47000     12.00184   -1.7333105  0.057400307   -1.6759102 
   48000    11.916544   -1.7294364  0.056992364    -1.672444 
   49000    10.330056   -1.7322636  0.049404787   -1.6828588 
   50000    11.637475   -1.7482848  0.055657682   -1.6926271 
   51000    13.838217    -1.737448  0.066183008   -1.6712649 
   52000    13.387882   -1.7224967  0.064029225   -1.6584675 
   53000    12.283297   -1.7292403  0.058746408   -1.6704939 
   54000    10.806967   -1.7347247  0.051685676    -1.683039 
   55000    9.8337783   -1.7278682  0.047031277   -1.6808369 
   56000    9.9156595   -1.7396862  0.047422885   -1.6922633 
   57000    10.367518   -1.7149338  0.049583952   -1.6653498 
   58000    14.692688   -1.7123077  0.070269625    -1.642038 
   59000    12.860243   -1.7000689  0.061505725   -1.6385632 
   60000     15.33295    -1.722355  0.073331755   -1.6490233 
   61000    16.618167   -1.6784126  0.079478469   -1.5989341 
   62000    21.006231   -1.7072685   0.10046493   -1.6068036 
   63000    13.917984   -1.6988704  0.066564502   -1.6323059 
   64000    18.614288   -1.7122458  0.089025165   -1.6232207 
   65000    12.612224   -1.7129492  0.060319543   -1.6526297 
   66000    15.089588   -1.7212602  0.072167847   -1.6490923 
   67000     19.52144    -1.695477  0.093363735   -1.6021132 
   68000    15.816709   -1.7193471  0.075645391   -1.6437017 
   69000    17.174219   -1.7363296  0.082137856   -1.6541917 
   70000    17.779232   -1.7020359  0.085031405   -1.6170045 
   71000    17.195505   -1.7220605  0.082239659   -1.6398208 
   72000    14.792777   -1.7135443  0.070748313   -1.6427959 
   73000     19.27534    -1.699226  0.092186728   -1.6070393 
   74000    19.634447   -1.6973419  0.093904204   -1.6034377 
   75000    17.582694    -1.699238  0.084091437   -1.6151466 
   76000    16.605702   -1.7322066  0.079418853   -1.6527877 
   77000    18.910006   -1.6682882  0.090439475   -1.5778487 
   78000    23.395804   -1.6623032   0.11189337   -1.5504098 
   79000    24.403792   -1.6388731   0.11671419    -1.522159 
   80000    21.696841   -1.6581592   0.10376786   -1.5543913 
   81000      22.1976   -1.6475429    0.1061628   -1.5413801 
   82000    18.618318   -1.6685204   0.08904444    -1.579476 
   83000    23.819406   -1.6748619    0.1139193   -1.5609426 
   84000    20.492889   -1.6554162  0.098009813   -1.5574064 
   85000     23.05167   -1.6712281    0.1102475   -1.5609806 
   86000    18.036947   -1.6651879  0.086263958    -1.578924 
   87000    19.800667   -1.6846895  0.094699173   -1.5899904 
   88000    21.955142   -1.6288969   0.10500322   -1.5238936 
   89000    21.586254    -1.703622   0.10323896   -1.6003831 
   90000    20.893122     -1.63011  0.099923974    -1.530186 
   91000    21.804573   -1.6763036    0.1042831   -1.5720205 
   92000    17.040215   -1.6749162  0.081496966   -1.5934192 
   93000    23.829663    -1.656005   0.11396835   -1.5420366 
   94000    20.654467   -1.6524179  0.098782578   -1.5536353 
   95000    24.638793      -1.6524   0.11783811   -1.5345619 
   96000    27.062421   -1.6706225   0.12942942   -1.5411931 
   97000    17.126425    -1.667718  0.081909274   -1.5858087 
   98000    25.311833   -1.6661635   0.12105701   -1.5451064 
   99000     25.54279   -1.6651226   0.12216159    -1.542961 
  100000    20.926024   -1.6719202   0.10008133   -1.5718389 
  101000    18.523335   -1.6809436  0.088590169   -1.5923534 
  102000    20.392505   -1.7077837  0.097529711    -1.610254 
  103000    25.743188   -1.6631753   0.12312002   -1.5400553 
  104000    17.425934   -1.6777772  0.083341715   -1.5944355 
  105000    18.215762   -1.5701698  0.087119167   -1.4830506 
  106000    24.095754   -1.5989283   0.11524096   -1.4836874 
  107000     24.94283   -1.6128998   0.11929221   -1.4936076 
  108000    24.203193    -1.676407    0.1157548   -1.5606522 
  109000    16.431271   -1.6703374  0.078584612   -1.5917527 
  110000    24.380168   -1.6595706   0.11660121   -1.5429694 
  111000    23.789249   -1.6486979   0.11377507   -1.5349229 
  112000    19.164538   -1.6695667  0.091656807   -1.5779099 
  113000    19.958506    -1.637916  0.095454056    -1.542462 
  114000    17.976388   -1.6862034  0.085974327   -1.6002291 
  115000    22.279124   -1.6465748   0.10655271   -1.5400221 
  116000    26.907935    -1.662916   0.12869057   -1.5342254 
  117000    22.887485   -1.6484058   0.10946226   -1.5389436 
  118000    22.690498    -1.677177   0.10852015   -1.5686568 
  119000    25.778894    -1.644631   0.12329079   -1.5213402 
  120000    21.331416   -1.6516653   0.10202017   -1.5496451 
  121000    21.886005   -1.6799945   0.10467256   -1.5753219 
  122000    25.309341   -1.6662818   0.12104509   -1.5452367 
  123000    18.629146   -1.6751322  0.089096227    -1.586036 
  124000    23.514311   -1.6537305   0.11246014   -1.5412704 
  125000    22.490245   -1.6544182   0.10756242   -1.5468558 
  126000    21.000812   -1.6748064   0.10043901   -1.5743674 
  127000    24.481269   -1.6726664   0.11708474   -1.5555817 
  128000    20.463365   -1.6746026  0.097868611    -1.576734 
  129000    21.962336   -1.5994232   0.10503763   -1.4943855 
  130000    20.745052   -1.6634132  0.099215813   -1.5641973 
  131000    24.452987   -1.6589294   0.11694948   -1.5419799 
  132000    21.730108   -1.6908806   0.10392696   -1.5869537 
  133000    23.171932   -1.6700642   0.11082267   -1.5592415 
  134000    21.022675   -1.6958956   0.10054358    -1.595352 
  135000    16.854858   -1.7090348  0.080610474   -1.6284243 
  136000    17.253371   -1.6998826  0.082516408   -1.6173662 
  137000    14.412794   -1.6970242  0.068930992   -1.6280932 
  138000    13.950241   -1.7179278  0.066718776    -1.651209 
  139000    15.384039    -1.683219  0.073576094   -1.6096429 
  140000    14.454294   -1.7233278  0.069129472   -1.6541983 
  141000    15.660721   -1.6937465   0.07489936   -1.6188472 
  142000    18.198698   -1.7078306  0.087037552   -1.6207931 
  143000    18.576005   -1.7043004  0.088842074   -1.6154583 
  144000      16.4892   -1.7052197  0.078861666    -1.626358 
  145000    19.343968   -1.6962244  0.092514951   -1.6037094 
  146000    13.212651   -1.7099084  0.063191162   -1.6467172 
  147000    14.904946   -1.7023436  0.071284775   -1.6310589 
  148000    14.442949   -1.7146464  0.069075212   -1.6455712 
  149000     20.11485   -1.7160455  0.096201789   -1.6198437 
  150000    11.502018   -1.7095475  0.055009842   -1.6545377 
  151000    17.033812   -1.6901456  0.081466339   -1.6086793 
  152000    18.162575   -1.7245037  0.086864794   -1.6376389 
  153000    16.148091    -1.702945  0.077230267   -1.6257148 
  154000    19.717052    -1.685946  0.094299271   -1.5916468 
  155000    19.483167   -1.7215626  0.093180688   -1.6283819 
  156000     15.68628   -1.7324357    0.0750216   -1.6574141 
  157000    9.9971501    -1.732767  0.047812624   -1.6849543 
  158000    14.038801   -1.7368203  0.067142326   -1.6696779 
  159000    11.852414   -1.7307053  0.056685655   -1.6740197 
  160000    12.243947   -1.7310714  0.058558213   -1.6725132 
  161000     11.84626   -1.7230005  0.056656224   -1.6663443 
  162000    12.552974   -1.7218116  0.060036171   -1.6617755 
  163000    11.160432   -1.7282858  0.053376166   -1.6749096 
  164000    9.4077056    -1.737044  0.044993532   -1.6920505 
  165000    11.983889   -1.7285687  0.057314453   -1.6712543 
  166000    13.590353   -1.7191052  0.064997569   -1.6541076 
  167000    18.201614   -1.6897972  0.087051502   -1.6027457 
  168000    19.632011     -1.72725  0.093892556   -1.6333575 
  169000    13.846068   -1.7334152  0.066220558   -1.6671947 
  170000    10.465538   -1.7231468  0.050052746    -1.673094 
  171000    20.968271   -1.7025788   0.10028338   -1.6022954 
  172000    18.304671   -1.7025942  0.087544385   -1.6150498 
  173000    13.303505   -1.7188633  0.063625683   -1.6552376 
  174000    15.814392   -1.6998816  0.075634314   -1.6242473 
  175000    15.769351   -1.7031681  0.075418897   -1.6277492 
  176000    14.791526   -1.7084532  0.070742329   -1.6377109 
  177000    14.963279   -1.6810146  0.071563756   -1.6094508 
  178000    13.919314   -1.7148349  0.066570862    -1.648264 
  179000    22.066816   -1.7012384   0.10553732   -1.5957011 
  180000    13.942928   -1.7196698  0.066683802    -1.652986 
  181000     12.41262    -1.706628  0.059364912    -1.647263 
  182000    12.115906   -1.6921272  0.057945841   -1.6341814 
  183000    17.262947   -1.6821765   0.08256221   -1.5996143 
  184000    19.764908    -1.728909  0.094528149   -1.6343809 
  185000    19.080724   -1.7211615  0.091255955   -1.6299055 
  186000    13.175175    -1.715673  0.063011924   -1.6526611 
  187000    15.412441   -1.7081073  0.073711932   -1.6343954 
  188000    17.531411   -1.6967851  0.083846171    -1.612939 
  189000    17.567193   -1.6974344  0.084017302   -1.6134171 
  190000    13.361445   -1.6943471  0.063902784   -1.6304443 
  191000    18.609706   -1.7345425  0.089003252   -1.6455393 
  192000     17.22133   -1.6825102  0.082363168    -1.600147 
  193000    13.417164   -1.7242736   0.06416927   -1.6601043 
  194000     13.90701   -1.7314371  0.066512021   -1.6649251 
  195000    10.700781   -1.7398092  0.051177827   -1.6886313 
  196000    8.0473542   -1.7473065   0.03848748    -1.708819 
  197000    10.877371   -1.7526597  0.052022389   -1.7006373 
  198000    9.4796778   -1.7449244  0.045337748   -1.6995866 
  199000    9.0243932   -1.7476738  0.043160292   -1.7045136 
  200000    9.7290302   -1.7496975  0.046530307   -1.7031672 
  201000    9.6278005    -1.750246  0.046046163   -1.7041999 
  202000    9.4734033   -1.7599144  0.045307739   -1.7146067 
  203000    9.0306621   -1.7500444  0.043190274   -1.7068541 
  204000      10.4415   -1.7388596  0.049937785   -1.6889218 
  205000    8.8544153   -1.7502785  0.042347351   -1.7079311 
  206000    9.1225277   -1.7511368  0.043629632   -1.7075072 
  207000    8.9824726   -1.7434443  0.042959801   -1.7004845 
  208000    8.5083618   -1.7508593  0.040692307    -1.710167 
  209000    11.615118   -1.7405167  0.055550758    -1.684966 
  210000    9.9839826    -1.757666  0.047749648   -1.7099164 
  211000    11.527632   -1.7396471  0.055132345   -1.6845148 
  212000    10.191339   -1.7441139  0.048741354   -1.6953725 
  213000      9.21825   -1.7437809  0.044087436   -1.6996935 
  214000    8.8852374   -1.7498702  0.042494762   -1.7073754 
  215000    8.9996341    -1.750487  0.043041878   -1.7074452 
  216000    11.091626   -1.7418698   0.05304709   -1.6888228 
  217000    7.9586173   -1.7482723  0.038063085   -1.7102092 
  218000    8.6478607   -1.7570438  0.041359478   -1.7156844 
  219000    10.057738    -1.733174  0.048102391   -1.6850716 
  220000    10.767891   -1.7436137  0.051498787   -1.6921149 
  221000    8.9434071   -1.7606226  0.042772966   -1.7178497 
  222000    7.6705561   -1.7412968  0.036685396   -1.7046114 
  223000     8.879566   -1.7420317  0.042467638   -1.6995641 
  224000    9.2575106   -1.7513675  0.044275205   -1.7070923 
  225000    8.2131109   -1.7456381  0.039280232   -1.7063579 
  226000    9.0768371   -1.7480591  0.043411111    -1.704648 
  227000    9.1900935   -1.7462966  0.043952774   -1.7023438 
  228000    10.209663   -1.7513456  0.048828993   -1.7025166 
  229000    8.0285425   -1.7481536  0.038397511   -1.7097561 
  230000    10.126083   -1.7504868  0.048429263   -1.7020575 
  231000    7.7305711   -1.7507875  0.036972426   -1.7138151 
  232000    6.7050082   -1.7491578  0.032067542   -1.7170903 
  233000    10.773088   -1.7500797  0.051523645    -1.698556 
  234000    7.9452006   -1.7434484  0.037998918   -1.7054495 
  235000    10.197285   -1.7447333  0.048769795   -1.6959635 
  236000    6.9795448   -1.7400974  0.033380548   -1.7067168 
  237000    8.8763002   -1.7363192  0.042452018   -1.6938671 
  238000    12.713615    -1.728453  0.060804458   -1.6676486 
  239000    12.963752   -1.7252927  0.062000768   -1.6632919 
  240000    11.927782    -1.739231  0.057046112   -1.6821849 
  241000    12.972692   -1.7184743  0.062043526   -1.6564308 
  242000     9.942112   -1.7346849  0.047549397   -1.6871355 
  243000    11.128424   -1.7354375  0.053223084   -1.6822144 
  244000     12.56854   -1.7244414  0.060110619   -1.6643307 
  245000    12.857853   -1.7301319  0.061494293   -1.6686376 
  246000    14.469927   -1.7397655   0.06920424   -1.6705613 
  247000    14.418141   -1.7345488  0.068956567   -1.6655922 
  248000    11.657813   -1.7330884  0.055754951   -1.6773335 
  249000    9.2232371   -1.7343611  0.044111288   -1.6902498 
  250000    9.9085159   -1.7112889   0.04738872   -1.6639002 
  251000    12.598693   -1.7470157  0.060254827   -1.6867609 
  252000       10.752   -1.7310415  0.051422788   -1.6796188 
  253000    12.760064   -1.7341845  0.061026605   -1.6731579 
  254000    11.885573   -1.7286618  0.056844244   -1.6718176 
  255000    10.104423   -1.7437542  0.048325671   -1.6954285 
  256000    11.871484    -1.731999  0.056776859   -1.6752222 
  257000    10.929331   -1.7291728  0.052270894   -1.6769019 
  258000    11.370289   -1.7214617   0.05437983   -1.6670819 
  259000    18.389644   -1.6987404   0.08795078   -1.6107896 
  260000    17.603062   -1.6818207  0.084188851   -1.5976318 
  261000    17.057416   -1.7321555  0.081579229   -1.6505762 
  262000     12.36074    -1.724252  0.059116787   -1.6651352 
  263000    12.534745   -1.7246653  0.059948988   -1.6647164 
  264000    10.369396   -1.7162575  0.049592934   -1.6666646 
  265000    11.799108   -1.7243856  0.056430714   -1.6679549 
  266000    10.099712   -1.7169685  0.048303139   -1.6686654 
  267000     14.51522   -1.7332282  0.069420859   -1.6638074 
  268000    11.294039    -1.716943  0.054015158   -1.6629278 
  269000     15.56004   -1.7347068  0.074417841    -1.660289 
  270000    13.186953   -1.7257544  0.063068255   -1.6626861 
  271000    11.636706   -1.7404805  0.055654006   -1.6848265 
  272000    10.752988   -1.7389593  0.051427514   -1.6875318 
  273000    11.021736    -1.722563  0.052712835   -1.6698502 
  274000    8.9783265   -1.7425588  0.042939972   -1.6996188 
  275000    11.283137   -1.7174859  0.053963015   -1.6635229 
  276000     13.73581   -1.7456721  0.065693235   -1.6799789 
  277000    12.040427   -1.7363845  0.057584853   -1.6787997 
  278000    12.239065   -1.7325456  0.058534862   -1.6740108 
  279000    13.564773   -1.7400318  0.064875227   -1.6751566 
  280000    7.7377069   -1.7416511  0.037006553   -1.7046446 
  281000    8.0791589   -1.7493209   0.03863959   -1.7106814 
  282000     7.030418   -1.7439231  0.033623855   -1.7102993 
  283000    7.7412258   -1.7388961  0.037023383   -1.7018728 
  284000     11.57484   -1.7443206  0.055358122   -1.6889625 
  285000    12.031816   -1.7265953   0.05754367   -1.6690516 
  286000    11.225553   -1.7254622  0.053687614   -1.6717746 
  287000    11.847506   -1.7327008  0.056662184   -1.6760386 
  288000     11.24331   -1.7178905  0.053772539    -1.664118 
  289000     11.05597   -1.7407039  0.052876563   -1.6878273 
  290000    12.121761   -1.7368406  0.057973843   -1.6788667 
  291000    14.598183   -1.7354712   0.06981764   -1.6656536 
  292000    13.277784   -1.7279207  0.063502666   -1.6644181 
  293000    11.179557   -1.7315218  0.053467633   -1.6780542 
  294000    14.594347   -1.7114588  0.069799293   -1.6416595 
  295000    15.023506   -1.7212792  0.071851802   -1.6494274 
  296000    11.296137   -1.7438741  0.054025193    -1.689849 
  297000    10.162852   -1.7284118  0.048605112   -1.6798067 
  298000    11.226084    -1.728714  0.053690155   -1.6750238 
  299000     12.83197   -1.7299707  0.061370507   -1.6686002 
  300000    11.182008     -1.73973  0.053479356   -1.6862507 
  301000    11.440934   -1.7247424  0.054717703   -1.6700247 
  302000    12.213727   -1.7327402  0.058413678   -1.6743265 
  303000    12.355682   -1.7404857  0.059092597   -1.6813931 
  304000    14.404467   -1.7021231  0.068891171    -1.633232 
  305000    18.461277   -1.6944632   0.08829337   -1.6061698 
  306000    13.090237   -1.6893942    0.0626057   -1.6267885 
  307000    14.974028    -1.731024  0.071615165   -1.6594089 
  308000    15.202498   -1.6815252  0.072707854   -1.6088173 
  309000    14.412849   -1.6948156  0.068931258   -1.6258843 
  310000    18.237835   -1.7038503   0.08722473   -1.6166255 
  311000    17.585251   -1.6986581  0.084103667   -1.6145544 
  312000    12.711138   -1.7155424  0.060792611   -1.6547498 
  313000    12.773307   -1.6970964  0.061089941   -1.6360065 
  314000    17.007632   -1.7166455   0.08134113   -1.6353044 
  315000    18.359542   -1.7018787  0.087806809   -1.6140719 
  316000    16.582927   -1.7168693  0.079309928   -1.6375594 
  317000    19.686302    -1.698163  0.094152206   -1.6040108 
  318000    15.450739   -1.7240622  0.073895099   -1.6501672 
  319000    17.728479   -1.7130285  0.084788671   -1.6282399 
  320000    11.560025   -1.7300802  0.055287271   -1.6747929 
  321000    14.125923   -1.7371633  0.067558996   -1.6696043 
  322000    14.010971   -1.7349401  0.067009226   -1.6679309 
  323000    14.182675    -1.745263  0.067830422   -1.6774326 
  324000    10.818092   -1.7186891   0.05173888   -1.6669502 
  325000    15.643307   -1.7124748  0.074816077   -1.6376587 
  326000    16.732157   -1.7031248  0.080023638   -1.6231011 
  327000    13.315383    -1.708776   0.06368249   -1.6450935 
  328000    19.564109   -1.7040488  0.093567803    -1.610481 
  329000    17.861473   -1.7147815  0.085424736   -1.6293567 
  330000    14.116338    -1.688158  0.067513155   -1.6206448 
  331000    15.589512   -1.7224086  0.074558794   -1.6478498 
  332000    10.886829   -1.7066148  0.052067627   -1.6545472 
  333000    13.361181     -1.72846  0.063901524   -1.6645585 
  334000    11.577644   -1.7294543  0.055371533   -1.6740828 
  335000    12.516177   -1.7357419  0.059860188   -1.6758817 
  336000     13.83069   -1.7359557  0.066147007   -1.6698086 
  337000    14.418501   -1.7188666  0.068958288   -1.6499083 
  338000    10.710237   -1.7292339  0.051223051   -1.6780108 
  339000    11.112199   -1.7372275  0.053145487   -1.6840821 
  340000    10.770217   -1.7463551  0.051509914   -1.6948452 
  341000    13.112693   -1.7261984    0.0627131   -1.6634853 
  342000    10.258386   -1.7351763  0.049062019   -1.6861143 
  343000    12.038243   -1.7444734  0.057574408    -1.686899 
  344000     12.72028   -1.7192648  0.060836335   -1.6584285 
  345000    16.074332   -1.7343059  0.076877508   -1.6574284 
  346000     8.576196   -1.7554517  0.041016732    -1.714435 
  347000    9.6267231    -1.747535   0.04604101    -1.701494 
  348000    9.6025514   -1.7396959  0.045925406   -1.6937705 
  349000    7.7363063   -1.7562012  0.036999855   -1.7192014 
  350000    7.6716178   -1.7525778  0.036690474   -1.7158873 
  351000    10.142141   -1.7425703  0.048506059   -1.6940642 
  352000    11.170901   -1.7482883  0.053426234   -1.6948621 
  353000     7.863906    -1.741464  0.037610116   -1.7038539 
  354000    7.5921395   -1.7434863  0.036310359   -1.7071759 
  355000    7.8094898   -1.7418158  0.037349864   -1.7044659 
  356000     8.187312   -1.7427219  0.039156846    -1.703565 
  357000    8.4886898    -1.755488  0.040598223   -1.7148898 
  358000    10.233921   -1.7507361   0.04894501   -1.7017911 
  359000    9.5086792   -1.7430146   0.04547645   -1.6975382 
  360000    8.4889552   -1.7453148  0.040599492   -1.7047153 
  361000    10.153901   -1.7522964  0.048562303   -1.7037341 
  362000     7.046086    -1.748741  0.033698789   -1.7150422 
  363000     8.908549   -1.7567992  0.042606252    -1.714193 
  364000    9.8074055   -1.7360192  0.046905146   -1.6891141 
  365000    9.5363065   -1.7505097  0.045608581   -1.7049011 
  366000    8.4302406   -1.7505227  0.040318683    -1.710204 
  367000    11.513911   -1.7434048  0.055066721   -1.6883381 
  368000    9.7302121   -1.7444569  0.046535959    -1.697921 
  369000    10.167709   -1.7221133  0.048628342   -1.6734849 
  370000    12.143104   -1.7310385  0.058075916   -1.6729626 
  371000    9.8429702   -1.7422626  0.047075239   -1.6951873 
  372000    7.1122051   -1.7449653  0.034015012   -1.7109503 
  373000    7.6357056   -1.7450146  0.036518719   -1.7084959 
  374000    10.432939   -1.7573697  0.049896838   -1.7074728 
  375000     9.934859   -1.7279421  0.047514709   -1.6804274 
  376000    9.4683119   -1.7425409  0.045283389   -1.6972575 
  377000    9.9683366   -1.7537824   0.04767482   -1.7061076 
  378000    7.4865611   -1.7404868  0.035805417   -1.7046814 
  379000    10.193126   -1.7496463  0.048749905   -1.7008964 
  380000    10.861309   -1.7540478   0.05194557   -1.7021022 
  381000    6.3970636   -1.7434195  0.030594759   -1.7128247 
  382000    9.8696491    -1.744257  0.047202834   -1.6970542 
  383000    7.9092238   -1.7474256  0.037826854   -1.7095987 
  384000    7.5924864   -1.7510406  0.036312018   -1.7147286 
  385000    7.9436134   -1.7435113  0.037991327     -1.70552 
  386000    6.4675067    -1.751672  0.030931662   -1.7207403 
  387000    9.6044559   -1.7382248  0.045934515   -1.6922902 
  388000    7.7192057   -1.7567983  0.036918069   -1.7198803 
  389000     9.017218   -1.7492245  0.043125975   -1.7060985 
  390000    10.847804   -1.7584166   0.05188098   -1.7065356 
  391000     9.560433   -1.7367655  0.045723969   -1.6910415 
  392000    10.622119    -1.731135  0.050801617   -1.6803334 
  393000    10.691406   -1.7233177  0.051132989   -1.6721847 
  394000    15.199525   -1.7297745  0.072693633   -1.6570809 
  395000    15.005667   -1.7393045  0.071766486    -1.667538 
  396000    12.396021   -1.7219552  0.059285525   -1.6626697 
  397000    13.092837    -1.733433  0.062618133   -1.6708148 
  398000    11.845002   -1.7331635  0.056650209   -1.6765133 
  399000    8.9447886   -1.7495074  0.042779573   -1.7067278 
  400000    8.4009999   -1.7518669  0.040178835   -1.7116881 
  401000    9.0864353   -1.7397325  0.043457016   -1.6962755 
  402000    8.2453705   -1.7457517  0.039434518   -1.7063172 
  403000    8.3871885   -1.7481322  0.040112781   -1.7080194 
  404000    8.6371991   -1.7476704  0.041308488   -1.7063619 
  405000    10.431858   -1.7526177  0.049891669    -1.702726 
  406000    8.4625973   -1.7469233  0.040473432   -1.7064498 
  407000    9.5554793    -1.749363  0.045700278   -1.7036627 
  408000    11.177587   -1.7572319  0.053458209   -1.7037737 
  409000    11.028572   -1.7489363  0.052745527   -1.6961907 
  410000     9.017881   -1.7313912  0.043129146    -1.688262 
  411000    11.057032   -1.7413422   0.05288164   -1.6884605 
  412000    13.193053   -1.7307515  0.063097432    -1.667654 
  413000    10.290517   -1.7316684  0.049215689   -1.6824527 
  414000    12.010716   -1.7330263  0.057442755   -1.6755835 
  415000    10.105504   -1.7543828   0.04833084   -1.7060519 
  416000    8.7393779   -1.7567011  0.041797171   -1.7149039 
  417000    9.7095257   -1.7482055  0.046437024   -1.7017685 
  418000    9.6592579   -1.7372379  0.046196612   -1.6910413 
  419000    8.8019076   -1.7450402  0.042096226    -1.702944 
  420000    7.4244433    -1.742161  0.035508331   -1.7066526 
  421000    9.4513629   -1.7385687  0.045202328   -1.6933664 
  422000    7.3878885   -1.7344424  0.035333503   -1.6991089 
  423000    10.984816   -1.7576997  0.052536261   -1.7051634 
  424000    7.4493705   -1.7483243  0.035627548   -1.7126968 
  425000     10.95124   -1.7511307  0.052375678    -1.698755 
  426000    6.9145813   -1.7594086  0.033069852   -1.7263388 
  427000    7.8974749   -1.7631228  0.037770664   -1.7253521 
  428000    5.8012218   -1.7616679   0.02774507   -1.7339229 
  429000    6.5398472    -1.752317  0.031277639   -1.7210394 
  430000     5.590603   -1.7576434   0.02673776   -1.7309056 
  431000    6.0959362   -1.7626881  0.029154579   -1.7335335 
  432000    7.1526935   -1.7656311  0.034208654   -1.7314224 
  433000    6.9626315   -1.7628527  0.033299658   -1.7295531 
  434000     7.144964   -1.7592806  0.034171686   -1.7251089 
  435000    6.4311483   -1.7635312  0.030757773   -1.7327734 
  436000    7.5427643   -1.7628393  0.036074216   -1.7267651 
  437000    8.2540602   -1.7602293  0.039476078   -1.7207533 
  438000    4.5252864   -1.7525453  0.021642749   -1.7309025 
  439000    6.8950325    -1.754461  0.032976357   -1.7214846 
  440000    8.7784998   -1.7587929  0.041984276   -1.7168087 
  441000    6.5904832   -1.7698122  0.031519812   -1.7382923 
  442000    5.9418801   -1.7532338  0.028417786    -1.724816 
  443000    5.8489433   -1.7619605  0.027973305   -1.7339872 
  444000    6.5684016   -1.7685967  0.031414204   -1.7371825 
  445000     6.385574   -1.7678332  0.030539808   -1.7372934 
  446000    6.1646271   -1.7530229  0.029483102   -1.7235398 
  447000    5.6961617    -1.756107  0.027242607   -1.7288644 
  448000    6.4491557   -1.7702734  0.030843896   -1.7394295 
  449000    6.4140818   -1.7647967   0.03067615   -1.7341205 
  450000     9.255446   -1.7489571  0.044265331   -1.7046917 
  451000    6.8540214   -1.7586445  0.032780216   -1.7258643 
  452000    6.6845726   -1.7646155  0.031969807   -1.7326457 
  453000    4.8735145    -1.762462  0.023308194   -1.7391538 
  454000    5.6304238    -1.761652  0.026928208   -1.7347238 
  455000    5.7064915   -1.7537296  0.027292011   -1.7264375 
  456000    6.4782601   -1.7594045  0.030983091   -1.7284214 
  457000     5.297483   -1.7625132  0.025335876   -1.7371774 
  458000    5.4625869   -1.7629607  0.026125507   -1.7368352 
  459000     6.336761   -1.7620117  0.030306354   -1.7317053 
  460000    7.2724171   -1.7594902  0.034781247   -1.7247089 
  461000    6.3153155    -1.764532  0.030203788   -1.7343282 
  462000    6.6212756   -1.7617943  0.031667081   -1.7301272 
  463000    8.3530102   -1.7626513  0.039949319    -1.722702 
  464000     6.357021   -1.7654679   0.03040325   -1.7350647 
  465000    6.5577237   -1.7599629  0.031363136   -1.7285998 
  466000    6.3128218   -1.7598015  0.030191862   -1.7296097 
  467000    6.9529114   -1.7622409  0.033253171   -1.7289877 
  468000    5.4898564   -1.7584254  0.026255926   -1.7321695 
  469000     6.567955   -1.7565959  0.031412068   -1.7251838 
  470000    7.1102487   -1.7608367  0.034005656   -1.7268311 
  471000    6.0416845   -1.7625766  0.028895113   -1.7336815 
  472000    6.7034823   -1.7599787  0.032060244   -1.7279185 
  473000    8.0167934    -1.765174   0.03834132   -1.7268327 
  474000    6.4068938   -1.7584758  0.030641773    -1.727834 
  475000    5.9736022   -1.7611787  0.028569501   -1.7326092 
  476000    7.1065962   -1.7588649  0.033988187   -1.7248768 
  477000    6.5382033   -1.7671439  0.031269777   -1.7358741 
  478000    5.2665758   -1.7663821  0.025188059    -1.741194 
  479000    6.2549441   -1.7580632  0.029915054   -1.7281482 
  480000    5.9670014    -1.755713  0.028537932   -1.7271751 
  481000    7.6538526   -1.7659267   0.03660551   -1.7293212 
  482000    6.9407437   -1.7554219  0.033194977   -1.7222269 
  483000    8.3667394   -1.7622524   0.04001498   -1.7222374 
  484000    6.7538115   -1.7563395   0.03230095   -1.7240386 
  485000     5.774767   -1.7549023  0.027618547   -1.7272837 
  486000    6.9705444   -1.7690716  0.033337502   -1.7357341 
  487000    4.1744118   -1.7733884  0.019964648   -1.7534237 
  488000    5.8527812   -1.7751208   0.02799166   -1.7471291 
  489000    4.8515528   -1.7691603   0.02320316   -1.7459572 
  490000    4.6354049   -1.7710151  0.022169405   -1.7488457 
  491000    5.0275734   -1.7720538     0.024045   -1.7480088 
  492000    5.4972686   -1.7694912  0.026291376   -1.7431998 
  493000    5.3756254    -1.770649  0.025709603   -1.7449394 
  494000     5.010599   -1.7705847  0.023963818   -1.7466208 
  495000    5.7602557   -1.7651525  0.027549145   -1.7376034 
  496000    5.1032703   -1.7632572   0.02440703   -1.7388502 
  497000    5.2135507   -1.7696465   0.02493446    -1.744712 
  498000    4.7150681     -1.76621  0.022550404   -1.7436596 
  499000    6.3994455   -1.7755073   0.03060615   -1.7449012 
  500000    4.9305245   -1.7721764  0.023580852   -1.7485956 
  501000    4.6644445   -1.7619809  0.022308291   -1.7396726 
  502000    8.6953385   -1.7616073  0.041586546   -1.7200208 
  503000    7.7044138   -1.7595597  0.036847325   -1.7227124 
  504000    6.5422257    -1.760633  0.031289014    -1.729344 
  505000    7.8588103   -1.7544439  0.037585746   -1.7168582 
  506000    6.9805866    -1.762287  0.033385531   -1.7289015 
  507000    6.0746115   -1.7693646  0.029052591   -1.7403121 
  508000    6.9388862   -1.7621095  0.033186093   -1.7289234 
  509000     5.831236   -1.7641914  0.027888617   -1.7363027 
  510000    6.1697994   -1.7606998  0.029507839   -1.7311919 
  511000    6.3320086   -1.7568256  0.030283625    -1.726542 
  512000    5.1296393   -1.7616311  0.024533143    -1.737098 
  513000    7.1416582   -1.7553878  0.034155876   -1.7212319 
  514000    6.7842867   -1.7649455  0.032446702   -1.7324988 
  515000    5.0962845   -1.7645114   0.02437362   -1.7401378 
  516000    8.0781438   -1.7597112  0.038634736   -1.7210765 
  517000    5.5287344   -1.7655141  0.026441866   -1.7390722 
  518000    5.8004545   -1.7629328  0.027741401   -1.7351914 
  519000    7.0152575   -1.7545508  0.033551348   -1.7209995 
  520000    11.018166   -1.7552152  0.052695758   -1.7025194 
  521000    5.0140641   -1.7532228   0.02398039   -1.7292424 
  522000    7.0711205   -1.7698895   0.03381852    -1.736071 
  523000    5.8767692   -1.7734668  0.028106385   -1.7453604 
  524000    3.6118714    -1.773281  0.017274228   -1.7560067 
  525000    5.7581365   -1.7652454   0.02753901   -1.7377064 
  526000    4.6197764   -1.7760405   0.02209466   -1.7539458 
  527000    4.2428148   -1.7701552  0.020291794   -1.7498634 
  528000    5.5325712   -1.7684782  0.026460216    -1.742018 
  529000    4.6701938    -1.766161  0.022335787   -1.7438252 
  530000    4.9874199   -1.7629118  0.023852961   -1.7390589 
  531000    4.1402105   -1.7730672  0.019801076   -1.7532661 
  532000    6.3679875   -1.7718558  0.030455699   -1.7414001 
  533000    4.0587669   -1.7702307  0.019411561   -1.7508191 
  534000    4.2855792   -1.7671605   0.02049632   -1.7466642 
  535000    4.4391071   -1.7719071  0.021230586   -1.7506765 
  536000    3.8136261   -1.7756811  0.018239145   -1.7574419 
  537000    4.3962551   -1.7697514  0.021025641   -1.7487257 
  538000     5.781972   -1.7727326  0.027653006   -1.7450796 
  539000    4.5677363   -1.7724975  0.021845772   -1.7506517 
  540000    4.5651898   -1.7752055  0.021833593   -1.7533719 
  541000    5.7695375   -1.7724049  0.027593537   -1.7448113 
  542000    6.2009924   -1.7654394  0.029657023   -1.7357824 
  543000    4.6013235   -1.7748732  0.022006407   -1.7528667 
  544000    4.3369872   -1.7680157  0.020742185   -1.7472736 
  545000    3.7932997   -1.7685498  0.018141931   -1.7504079 
  546000    4.8387808   -1.7771063  0.023142076   -1.7539642 
  547000    4.7381091   -1.7728795  0.022660601   -1.7502189 
  548000    5.2639685   -1.7724811  0.025175589   -1.7473055 
  549000    3.9552026   -1.7738498  0.018916252   -1.7549335 
  550000    4.4679536   -1.7733969  0.021368548   -1.7520284 
  551000    4.5340171   -1.7706678  0.021684505   -1.7489833 
  552000    4.7206064   -1.7683043  0.022576892   -1.7457274 
  553000    6.5937362   -1.7574664   0.03153537    -1.725931 
  554000     6.289578    -1.757223  0.030080695   -1.7271423 
  555000    6.6672771   -1.7559833  0.031887089   -1.7240962 
  556000    7.1335472   -1.7640264  0.034117084   -1.7299093 
  557000    6.3138084   -1.7692449   0.03019658   -1.7390484 
  558000    7.1434178   -1.7581067  0.034164291   -1.7239424 
  559000    6.6060196   -1.7545224  0.031594117   -1.7229283 
  560000    6.7381554   -1.7724623  0.032226073   -1.7402362 
  561000    6.6411414   -1.7579893  0.031762091   -1.7262273 
  562000    6.7222142   -1.7620454  0.032149832   -1.7298955 
  563000    5.8658209   -1.7516473  0.028054024   -1.7235933 
  564000    7.1036419   -1.7615692  0.033974058   -1.7275952 
  565000     6.269343   -1.7631245  0.029983919   -1.7331405 
  566000    6.5417897   -1.7637204  0.031286929   -1.7324335 
  567000    6.2601388   -1.7489394  0.029939899   -1.7189995 
  568000    7.5234251   -1.7613553  0.035981724   -1.7253735 
  569000    7.6489771   -1.7607048  0.036582192   -1.7241226 
  570000    3.8808212   -1.7705093  0.018560514   -1.7519487 
  571000    4.2059218   -1.7724133  0.020115348    -1.752298 
  572000     5.069868   -1.7693054  0.024247279   -1.7450581 
  573000    4.8997562   -1.7700684  0.023433698   -1.7466347 
  574000    5.2710412    -1.771825  0.025209415   -1.7466156 
  575000    4.5229509   -1.7695697   0.02163158   -1.7479381 
  576000    5.4595728   -1.7759008  0.026111092   -1.7497897 
  577000    3.5474593    -1.780862  0.016966169   -1.7638959 
  578000    4.0081914   -1.7811081  0.019169678   -1.7619384 
  579000    4.4273345   -1.7763727  0.021174282   -1.7551984 
  580000    4.6288735   -1.7682914  0.022138168   -1.7461532 
  581000    6.3804702    -1.766873  0.030515398   -1.7363576 
  582000    6.2765442   -1.7655905  0.030018359   -1.7355722 
  583000    5.1739698   -1.7636247  0.024745159   -1.7388795 
  584000    6.7108874   -1.7622361   0.03209566   -1.7301404 
  585000    6.4930712   -1.7655286  0.031053927   -1.7344746 
  586000    6.9579274   -1.7550929   0.03327716   -1.7218157 
  587000    6.1786246   -1.7673839  0.029550047   -1.7378338 
  588000    5.7001191   -1.7598549  0.027261534   -1.7325934 
  589000    8.0390168   -1.7575968  0.038447606   -1.7191492 
  590000    7.4152291   -1.7694404  0.035464263   -1.7339761 
  591000    7.3818831   -1.7605268  0.035304781    -1.725222 
  592000    5.7644899    -1.760567  0.027569396   -1.7329976 
  593000    6.6219206   -1.7669357  0.031670165   -1.7352656 
  594000     6.620194    -1.750099  0.031661908   -1.7184371 
  595000    6.1322987   -1.7644722  0.029328488   -1.7351437 
  596000    5.9294269   -1.7604765  0.028358228   -1.7321183 
  597000    7.3928716    -1.755847  0.035357335   -1.7204897 
  598000    7.3065554   -1.7570145  0.034944517   -1.7220699 
  599000    7.3714173   -1.7648308  0.035254727   -1.7295761 
  600000    7.4245096   -1.7587768  0.035508648   -1.7232681 
  601000     7.016523   -1.7638611  0.033557401   -1.7303037 
  602000    4.6077662   -1.7643023   0.02203722   -1.7422651 
  603000    5.4637813   -1.7713835  0.026131219   -1.7452523 
  604000    5.3039741   -1.7748967  0.025366921   -1.7495298 
  605000    4.1115496   -1.7682771  0.019664001   -1.7486131 
  606000    5.3715578   -1.7650524  0.025690149   -1.7393622 
  607000    4.7592196   -1.7731548  0.022761565   -1.7503932 
  608000    4.2059575   -1.7675443  0.020115519   -1.7474287 
  609000    6.0904795    -1.771398  0.029128482   -1.7422695 
  610000    4.8926181   -1.7717717   0.02339956   -1.7483721 
  611000    5.1645964   -1.7698973   0.02470033   -1.7451969 
  612000    5.0801933   -1.7733581  0.024296661   -1.7490615 
  613000    3.7522309   -1.7785619  0.017945515   -1.7606164 
  614000    3.9050443   -1.7798599  0.018676364   -1.7611835 
  615000    3.2879233   -1.7805585  0.015724905   -1.7648336 
  616000     3.114097   -1.7812602  0.014893559   -1.7663667 
  617000    4.0183192   -1.7773212  0.019218115   -1.7581031 
  618000    3.1680481   -1.7780904  0.015151587   -1.7629389 
  619000      4.04815   -1.7752028  0.019360785    -1.755842 
  620000    3.5534667   -1.7710977    0.0169949   -1.7541028 
  621000    2.7278071   -1.7838817  0.013046079   -1.7708356 
  622000    3.3980948    -1.777676  0.016251814   -1.7614241 
  623000    3.3279743   -1.7780345  0.015916455    -1.762118 
  624000    3.7071031   -1.7765299  0.017729686   -1.7588002 
  625000    3.6755837   -1.7789944   0.01757894   -1.7614155 
  626000    2.9022275   -1.7789869  0.013880267   -1.7651067 
  627000    4.4742423   -1.7751394  0.021398625   -1.7537408 
  628000    5.7966918   -1.7647053  0.027723405   -1.7369819 
  629000    4.9377997   -1.7708565  0.023615646   -1.7472409 
  630000    5.4530742   -1.7779765  0.026080011   -1.7518965 
  631000    4.3894671   -1.7790309  0.020993177   -1.7580377 
  632000    3.6218833    -1.777976  0.017322111   -1.7606539 
  633000    6.3300296   -1.7684836   0.03027416   -1.7382094 
  634000    5.0109371   -1.7629301  0.023965435   -1.7389647 
  635000    5.3278095   -1.7749862  0.025480917   -1.7495053 
  636000    4.7758105   -1.7690928  0.022840913   -1.7462519 
  637000      7.34845   -1.7751504  0.035144883   -1.7400055 
  638000    3.9991989   -1.7779388   0.01912667   -1.7588121 
  639000    4.5708929   -1.7813399  0.021860868   -1.7594791 
  640000    2.9916588     -1.77183  0.014307983    -1.757522 
  641000    3.6162954   -1.7822211  0.017295386   -1.7649257 
  642000    3.8282875   -1.7793223  0.018309265    -1.761013 
  643000    4.3423743   -1.7768817  0.020767949   -1.7561137 
  644000    3.4206444   -1.7771391  0.016359661   -1.7607795 
  645000    3.2513027   -1.7806992  0.015549763   -1.7651495 
  646000    2.5521724   -1.7861511  0.012206084    -1.773945 
  647000    2.5500854   -1.7870456  0.012196103   -1.7748495 
  648000    3.1538413   -1.7864423  0.015083641   -1.7713586 
  649000    2.6023741   -1.7860366   0.01244618   -1.7735904 
  650000     2.299089   -1.7841504  0.010995681   -1.7731547 
  651000    3.4264613   -1.7802428  0.016387481   -1.7638553 
  652000    4.3450641   -1.7820354  0.020780814   -1.7612546 
  653000    3.2148018   -1.7789576  0.015375193   -1.7635824 
  654000    3.1832596    -1.779053  0.015224338   -1.7638287 
  655000    3.6421691   -1.7788482   0.01741913   -1.7614291 
  656000     2.912752   -1.7816892  0.013930601   -1.7677586 
  657000    3.3080672   -1.7796315  0.015821246   -1.7638103 
  658000    3.7851138   -1.7823528  0.018102781   -1.7642501 
  659000    3.7239187   -1.7780485  0.017810108   -1.7602384 
  660000     3.688793   -1.7804034  0.017642115   -1.7627612 
  661000    3.9161907    -1.778075  0.018729673   -1.7593453 
  662000    3.7606694   -1.7806424  0.017985873   -1.7626566 
  663000    3.3583705   -1.7755856  0.016061828   -1.7595237 
  664000    2.7750749   -1.7784539  0.013272144   -1.7651818 
  665000     3.556678   -1.7756181  0.017010259   -1.7586079 
  666000    4.3544623   -1.7819958  0.020825762   -1.7611701 
  667000    2.6279024   -1.7820235  0.012568273   -1.7694552 
  668000    3.7127265   -1.7790465   0.01775658   -1.7612899 
  669000    2.9096082   -1.7748915  0.013915566   -1.7609759 
  670000    2.5820248    -1.782683  0.012348857   -1.7703341 
  671000    4.1233843   -1.7785911  0.019720602   -1.7588705 
  672000    3.1318142   -1.7853534  0.014978294   -1.7703751 
  673000    3.4772669   -1.7756753  0.016630465   -1.7590448 
  674000    3.7072988   -1.7808371  0.017730621   -1.7631064 
  675000    4.1266308   -1.7765338  0.019736129   -1.7567977 
  676000    4.3801635   -1.7689219  0.020948681   -1.7479732 
  677000    5.4828118   -1.7705946  0.026222235   -1.7443723 
  678000    4.2804614   -1.7685992  0.020471843   -1.7481274 
  679000     5.816278   -1.7677821  0.027817079    -1.739965 
  680000    5.7740129   -1.7716011  0.027614941   -1.7439861 
  681000    4.2571593   -1.7750615  0.020360398   -1.7547011 
  682000    4.7249747   -1.7637155  0.022597784   -1.7411177 
  683000    4.6143816   -1.7604608  0.022068858   -1.7383919 
  684000    5.8620537    -1.775293  0.028036007    -1.747257 
  685000    4.4041991   -1.7701813  0.021063634   -1.7491177 
  686000    4.3570896   -1.7748692  0.020838327   -1.7540309 
  687000    4.0284256     -1.77663   0.01926645   -1.7573635 
  688000    3.1029035   -1.7751554  0.014840025   -1.7603154 
  689000    2.7471231   -1.7820279  0.013138461   -1.7688894 
  690000    3.5584963    -1.778619  0.017018955      -1.7616 
  691000    3.4303764   -1.7781879  0.016406205   -1.7617816 
  692000    3.5166401   -1.7708214  0.016818772   -1.7540026 
  693000    4.3674976   -1.7758387  0.020888105   -1.7549506 
  694000    4.5494006   -1.7759615  0.021758079   -1.7542034 
  695000     3.898767   -1.7772039  0.018646342   -1.7585575 
  696000    4.1423663     -1.77991  0.019811386   -1.7600986 
  697000    2.8678394   -1.7842287  0.013715802   -1.7705129 
  698000    1.9618921   -1.7817286 0.0093829948   -1.7723456 
  699000    3.2395824    -1.783908  0.015493709   -1.7684143 
  700000    2.1258588    -1.783543  0.010167186   -1.7733758 
  701000    2.5331845   -1.7859888  0.012115272   -1.7738735 
  702000    2.2649781   -1.7831263  0.010832541   -1.7722937 
  703000     2.254093    -1.785887  0.010780483   -1.7751065 
  704000    2.0254716   -1.7864773 0.0096870717   -1.7767902 
  705000    2.2917451   -1.7864322  0.010960558   -1.7754717 
  706000    2.1262623   -1.7880755  0.010169116   -1.7779064 
  707000    2.8494499   -1.7881054  0.013627851   -1.7744775 
  708000    2.5238826   -1.7849142  0.012070785   -1.7728434 
  709000    2.9162905   -1.7816716  0.013947525    -1.767724 
  710000    3.3697217   -1.7770235  0.016116117   -1.7609074 
  711000    3.2656473    -1.780714  0.015618368   -1.7650957 
  712000    4.3811889   -1.7807234  0.020953585   -1.7597698 
  713000    3.5784669   -1.7779318  0.017114467   -1.7608174 
  714000    3.7832304   -1.7770432  0.018093774   -1.7589495 
  715000    4.0251878   -1.7756763  0.019250965   -1.7564253 
  716000    3.7378411   -1.7766545  0.017876694   -1.7587778 
  717000    4.1143776   -1.7747914  0.019677527   -1.7551139 
  718000    3.9354553   -1.7767374  0.018821808   -1.7579155 
  719000    4.2478545   -1.7726488  0.020315896   -1.7523329 
  720000    5.0904389   -1.7710225  0.024345662   -1.7466768 
  721000    6.0809344   -1.7553853  0.029082831   -1.7263024 
  722000    6.0320871   -1.7586471  0.028849213   -1.7297979 
  723000    6.8521341   -1.7609875   0.03277119   -1.7282163 
  724000    6.8282984    -1.763713  0.032657193   -1.7310558 
  725000    6.3820819   -1.7588087  0.030523107   -1.7282855 
  726000     8.373132    -1.736026  0.040045553   -1.6959804 
  727000      12.8145   -1.7386788   0.06128695   -1.6773919 
  728000    9.2343891    -1.740128  0.044164623   -1.6959634 
  729000    7.7937162   -1.7542723  0.037274425   -1.7169978 
  730000    10.294907   -1.7503638  0.049236683   -1.7011271 
  731000    9.5109988   -1.7326372  0.045487544   -1.6871497 
  732000    12.819491   -1.7229408  0.061310824     -1.66163 
  733000    11.216326   -1.7446393  0.053643484   -1.6909958 
  734000    12.482487   -1.7282255  0.059699058   -1.6685265 
  735000    11.339169   -1.7311404  0.054230997   -1.6769094 
  736000    10.343226   -1.7330071  0.049467773   -1.6835393 
  737000    12.492038   -1.7303139  0.059744738   -1.6705692 
  738000    8.6325381   -1.7229263  0.041286196   -1.6816401 
  739000    12.303877   -1.7390192  0.058844833   -1.6801743 
  740000    8.4201196   -1.7497659  0.040270278   -1.7094956 
  741000    10.490358   -1.7448023  0.050171453   -1.6946308 
  742000    9.6057609   -1.7363421  0.045940756   -1.6904013 
  743000    7.6391322   -1.7434236  0.036535107   -1.7068885 
  744000    9.8414482   -1.7546975   0.04706796   -1.7076296 
  745000    8.0877488   -1.7476277  0.038680673   -1.7089471 
  746000    8.1499327   -1.7381137  0.038978075   -1.6991357 
  747000    9.6150731   -1.7374913  0.045985292    -1.691506 
  748000    9.5930962   -1.7608915  0.045880185   -1.7150113 
  749000     9.395943   -1.7407314  0.044937275   -1.6957941 
  750000    9.9618198    -1.749894  0.047643652   -1.7022503 
  751000     8.255506    -1.745325  0.039482992    -1.705842 
  752000    8.3096291   -1.7509014  0.039741843   -1.7111596 
  753000    12.592253    -1.742816  0.060224028    -1.682592 
  754000    9.7409067   -1.7415404  0.046587108   -1.6949533 
  755000    10.684313    -1.750818  0.051099066   -1.6997189 
  756000     7.370577   -1.7508493  0.035250709   -1.7155986 
  757000    12.529342   -1.7459127  0.059923149   -1.6859896 
  758000    12.432679   -1.7600198  0.059460844    -1.700559 
  759000    9.5256908    -1.738529   0.04555781   -1.6929712 
  760000    8.1216316    -1.749235  0.038842721   -1.7103923 
  761000    8.8034757   -1.7553109  0.042103726   -1.7132071 
  762000    5.5174033   -1.7655355  0.026387673   -1.7391478 
  763000    4.4898571   -1.7732801  0.021473305   -1.7518068 
  764000    6.2970479   -1.7545166  0.030116421   -1.7244002 
  765000    9.0387128   -1.7427084  0.043228777   -1.6994797 
  766000    11.032773   -1.7400225  0.052765622   -1.6872569 
  767000    8.5011073   -1.7584696  0.040657612    -1.717812 
  768000    9.3141051   -1.7514508  0.044545875   -1.7069049 
  769000    9.5576645   -1.7512235  0.045710729   -1.7055128 
  770000     8.023478   -1.7506708   0.03837329   -1.7122975 
  771000    9.2275726   -1.7538455  0.044132023   -1.7097135 
  772000    9.1531205   -1.7457683  0.043775946   -1.7019923 
  773000    10.765336    -1.742238  0.051486568   -1.6907514 
  774000    7.8377603   -1.7468317  0.037485071   -1.7093467 
  775000    9.2569949   -1.7521024  0.044272739   -1.7078296 
  776000    7.4009286   -1.7466495  0.035395869   -1.7112537 
  777000    8.4178643   -1.7285588  0.040259491   -1.6882993 
  778000     10.17811   -1.7619065  0.048678085   -1.7132284 
  779000    8.0568793   -1.7517574  0.038533035   -1.7132243 
  780000    8.3548444   -1.7382315  0.039958091   -1.6982734 
  781000    9.8848278   -1.7454563  0.047275428   -1.6981809 
  782000    9.4172334   -1.7634866  0.045039099   -1.7184475 
  783000    8.7112219   -1.7559732  0.041662511   -1.7143107 
  784000    9.5635362   -1.7452137  0.045738811   -1.6994749 
  785000    6.7091796   -1.7416813  0.032087493   -1.7095938 
  786000    8.6026501   -1.7572878  0.041143253   -1.7161446 
  787000    10.333023   -1.7500909  0.049418978   -1.7006719 
  788000    8.1323601   -1.7339461  0.038894031    -1.695052 
  789000    9.8586138   -1.7404629  0.047150057   -1.6933128 
  790000    9.4653384   -1.7641671  0.045269168    -1.718898 
  791000    7.1584035   -1.7625527  0.034235962   -1.7283167 
  792000    7.5593077    -1.759115  0.036153337   -1.7229616 
  793000    5.7804392   -1.7556181  0.027645675   -1.7279724 
  794000    9.6014245   -1.7486635  0.045920017   -1.7027435 
  795000    6.5170816   -1.7380155   0.03116876   -1.7068467 
  796000    13.136721   -1.7356448  0.062828014   -1.6728168 
  797000    11.042098   -1.7222545   0.05281022   -1.6694443 
  798000     13.83891   -1.7343798  0.066186324   -1.6681935 
  799000    8.9434874   -1.7306408   0.04277335   -1.6878675 
  800000    13.478151   -1.7395424  0.064460947   -1.6750815 
  801000    10.392272    -1.731041  0.049702344   -1.6813387 
  802000    12.209828    -1.723967  0.058395033    -1.665572 
  803000    9.9835315   -1.7371539  0.047747491   -1.6894064 
  804000    10.188734   -1.7466378  0.048728899   -1.6979089 
  805000    12.423747   -1.7199999  0.059418128   -1.6605818 
  806000    12.612543   -1.7317811  0.060321069     -1.67146 
  807000    12.844836   -1.7332322  0.061432036   -1.6718001 
  808000    12.139188   -1.7272148  0.058057188   -1.6691576 
  809000    12.149492   -1.7295404  0.058106467    -1.671434 
  810000    10.607536   -1.7317854  0.050731869   -1.6810536 
  811000    13.011561   -1.7196315  0.062229422   -1.6574021 
  812000    11.312916   -1.7213745  0.054105441    -1.667269 
  813000    10.927823   -1.7376322  0.052263685   -1.6853686 
  814000    12.224265   -1.7401439  0.058464081   -1.6816798 
  815000    6.9471368   -1.7583832  0.033225552   -1.7251576 
  816000     7.514861   -1.7590216  0.035940765   -1.7230809 
  817000    7.0255542   -1.7627303  0.033600594   -1.7291297 
  818000    5.7234458   -1.7573479  0.027373097   -1.7299748 
  819000    7.2403961   -1.7596469  0.034628102   -1.7250188 
  820000    7.2843046   -1.7628939    0.0348381   -1.7280558 
  821000    5.7228476   -1.7601693  0.027370236   -1.7327991 
  822000    6.4711452   -1.7647595  0.030949063   -1.7338104 
  823000     6.166845   -1.7496223  0.029493709   -1.7201286 
  824000    6.3979074   -1.7646301  0.030598794   -1.7340313 
  825000    7.1214246   -1.7615217  0.034059106   -1.7274626 
  826000    8.4116622    -1.766078  0.040229829   -1.7258482 
  827000    5.7202213   -1.7631069  0.027357675   -1.7357492 
  828000    6.5149408   -1.7611663  0.031158521   -1.7300078 
  829000    5.4540526    -1.761767   0.02608469   -1.7356823 
  830000    5.3455756   -1.7580183  0.025565886   -1.7324524 
  831000    5.4118778   -1.7576971  0.025882984   -1.7318141 
  832000    6.5453803   -1.7642392  0.031304102   -1.7329351 
  833000    6.5330115   -1.7674153  0.031244947   -1.7361703 
  834000    8.4363964   -1.7601162  0.040348124   -1.7197681 
  835000    5.7083537   -1.7632921  0.027300917   -1.7359912 
  836000    6.0715267   -1.7575505  0.029037838   -1.7285127 
  837000     5.547624   -1.7680772  0.026532207    -1.741545 
  838000     6.992435   -1.7634517  0.033442197   -1.7300095 
  839000    6.4854624   -1.7674936  0.031017537    -1.736476 
  840000    5.9697001   -1.7534457  0.028550839   -1.7248949 
  841000    5.5370126   -1.7659455  0.026481457    -1.739464 
  842000      5.49078   -1.7616687  0.026260344   -1.7354083 
  843000    6.2080977   -1.7584665  0.029691005   -1.7287755 
  844000     6.001018   -1.7544833  0.028700621   -1.7257827 
  845000    4.9099625   -1.7631794  0.023482511   -1.7396969 
  846000    10.653487   -1.7408599  0.050951639   -1.6899083 
  847000    9.7134201   -1.7433271  0.046455649   -1.6968714 
  848000    8.4283051   -1.7377924  0.040309426    -1.697483 
  849000    10.585373   -1.7507596  0.050625874   -1.7001338 
  850000    10.781147   -1.7465101  0.051562187   -1.6949479 
  851000     8.690325   -1.7406896  0.041562569    -1.699127 
  852000    10.685505   -1.7495452  0.051104768   -1.6984405 
  853000     10.25822   -1.7551778  0.049061223   -1.7061165 
  854000    8.9830731   -1.7446984  0.042962673   -1.7017357 
  855000    9.2874799   -1.7519654  0.044418537   -1.7075469 
  856000    9.0928604   -1.7547051  0.043487745   -1.7112173 
  857000    9.6348322   -1.7397006  0.046079793   -1.6936208 
  858000    11.214902   -1.7259412  0.053636676   -1.6723045 
  859000    11.035964   -1.7308406  0.052780881   -1.6780597 
  860000    10.973708   -1.7315545  0.052483136   -1.6790713 
  861000    9.2880004    -1.728731  0.044421026   -1.6843099 
  862000    12.105296   -1.7347681  0.057895094    -1.676873 
  863000    12.533378   -1.7415504  0.059942453   -1.6816079 
  864000    13.778294   -1.7235348  0.065896418   -1.6576384 
  865000    9.8237196   -1.7257557  0.046983171   -1.6787725 
  866000    14.935108   -1.7430338  0.071429028   -1.6716048 
  867000     10.60385      -1.7329  0.050714243   -1.6821857 
  868000    12.689197   -1.7263303  0.060687674   -1.6656426 
  869000    18.889917    -1.730078  0.090343394   -1.6397346 
  870000      13.6624   -1.7311912  0.065342142    -1.665849 
  871000    15.173731   -1.7303442   0.07257027   -1.6577739 
  872000    11.399961   -1.7180872  0.054521743   -1.6635654 
  873000    11.620259   -1.7428282  0.055575348   -1.6872528 
  874000    13.478519   -1.7209628  0.064462705   -1.6565001 
  875000    9.3396615   -1.7200637  0.044668102   -1.6753956 
  876000    14.861076   -1.7303051  0.071074959   -1.6592302 
  877000     12.58211   -1.7322214  0.060175518   -1.6720459 
  878000    14.100524   -1.7348387  0.067437522   -1.6674012 
  879000    12.348845   -1.7249662  0.059059899   -1.6659063 
  880000      13.3281   -1.7428958  0.063743307   -1.6791525 
  881000    12.321908   -1.7274869  0.058931069   -1.6685558 
  882000    11.394439   -1.7105412  0.054495332   -1.6560458 
  883000     17.44612   -1.7110279  0.083438256   -1.6275897 
  884000    15.346389   -1.7092417   0.07339603   -1.6358456 
  885000    16.840651   -1.7103465  0.080542526    -1.629804 
  886000    21.729693   -1.6923141   0.10392498   -1.5883891 
  887000    21.244251    -1.722994   0.10160329   -1.6213907 
  888000    14.662772   -1.7366244  0.070126545   -1.6664979 
  889000    14.497381   -1.7259342  0.069335543   -1.6565987 
  890000    11.694762   -1.7325713  0.055931667   -1.6766396 
  891000    12.607865   -1.7279078  0.060298697   -1.6676091 
  892000    11.146323   -1.7381803  0.053308689   -1.6848716 
  893000    12.503829   -1.7276244  0.059801128   -1.6678233 
  894000    11.363276   -1.7308063  0.054346292     -1.67646 
  895000    13.381494   -1.7497845  0.063998673   -1.6857858 
  896000    14.805034   -1.7182217  0.070806933   -1.6474148 
  897000    9.7926736   -1.7375665  0.046834689   -1.6907318 
  898000    10.503645    -1.751077  0.050234998    -1.700842 
  899000    7.8100083   -1.7490275  0.037352344   -1.7116751 
  900000    8.6539445   -1.7466613  0.041388574   -1.7052728 
  901000    8.6070438   -1.7436741  0.041164266   -1.7025099 
  902000    8.3230173   -1.7530649  0.039805874    -1.713259 
  903000    10.537772   -1.7513585  0.050398215   -1.7009603 
  904000    8.4561457   -1.7446351  0.040442577   -1.7041925 
  905000    7.6691787   -1.7456219  0.036678809   -1.7089431 
  906000    11.367678   -1.7476575  0.054367346   -1.6932902 
  907000    9.6145328   -1.7413901  0.045982708   -1.6954074 
  908000    9.7697826   -1.7576725   0.04672521   -1.7109472 
  909000    8.5630238   -1.7490462  0.040953735   -1.7080924 
  910000    7.8508503    -1.741397  0.037547676   -1.7038493 
  911000    7.9781192   -1.7604623  0.038156355    -1.722306 
  912000    9.1637669   -1.7561594  0.043826864   -1.7123325 
  913000    7.0582564   -1.7456337  0.033756996   -1.7118767 
  914000    7.9375573   -1.7258843  0.037962363   -1.6879219 
  915000    11.773319   -1.7321711  0.056307373   -1.6758638 
  916000    12.220614   -1.7249587  0.058446621   -1.6665121 
  917000    11.868441   -1.7368135  0.056762306   -1.6800512 
  918000    10.818232   -1.7137358  0.051739549   -1.6619962 
  919000    16.344133   -1.7116756  0.078167867   -1.6335077 
  920000    12.335819    -1.716395  0.058997599   -1.6573974 
  921000     16.42009   -1.7171154   0.07853114   -1.6385842 
  922000    19.850491   -1.6913914   0.09493746   -1.5964539 
  923000    17.135122   -1.7091037  0.081950871   -1.6271528 
  924000    14.464844   -1.6916923  0.069179928   -1.6225123 
  925000    16.810475   -1.7136591  0.080398206   -1.6332609 
  926000    14.532884   -1.7156613  0.069505338    -1.646156 
  927000    11.979945   -1.7217495  0.057295587   -1.6644539 
  928000    16.246045   -1.6966565  0.077698748   -1.6189577 
  929000     16.38177   -1.7120502  0.078347868   -1.6337024 
  930000    17.339256   -1.7293166  0.082927167   -1.6463895 
  931000    11.056586   -1.7048953  0.052879507   -1.6520158 
  932000    16.174777   -1.7112495    0.0773579   -1.6338916 
  933000    12.690489   -1.7426008  0.060693856    -1.681907 
  934000    12.249178   -1.7307606  0.058583228   -1.6721773 
  935000    12.969278   -1.7309151  0.062027197   -1.6688879 
  936000    13.885442   -1.7375666  0.066408865   -1.6711578 
  937000    7.9241331   -1.7460259   0.03789816   -1.7081277 
  938000     9.097707   -1.7614356  0.043510924   -1.7179246 
  939000    13.223698   -1.7464284  0.063243995   -1.6831844 
  940000     9.894665   -1.7479008  0.047322476   -1.7005783 
  941000     9.598063    -1.746096   0.04590394    -1.700192 
  942000    10.247924   -1.7518497  0.049011983   -1.7028378 
  943000    9.1117566   -1.7632109  0.043578118   -1.7196328 
  944000    7.1760608   -1.7627898   0.03432041   -1.7284694 
  945000    7.3322236   -1.7609453  0.035067278    -1.725878 
  946000    7.5442047   -1.7590659  0.036081105   -1.7229848 
  947000    5.9206262   -1.7581867  0.028316137   -1.7298706 
  948000    6.9441451   -1.7671271  0.033211245   -1.7339158 
  949000    6.2022754   -1.7592475   0.02966316   -1.7295843 
  950000    6.9351585   -1.7524755  0.033168265   -1.7193072 
  951000    7.0882686   -1.7641796  0.033900533   -1.7302791 
  952000    5.2197838    -1.772492   0.02496427   -1.7475278 
  953000    5.5334491   -1.7601802  0.026464414   -1.7337158 
  954000      5.74446   -1.7577083    0.0274736   -1.7302347 
  955000    6.8165828   -1.7524138  0.032601162   -1.7198126 
  956000    5.9060663    -1.771272  0.028246503   -1.7430255 
  957000    5.2161667    -1.773773  0.024946971   -1.7488261 
  958000    4.8018766     -1.76903  0.022965577   -1.7460645 
  959000    4.7828876   -1.7623462  0.022874759   -1.7394714 
  960000    6.0158895   -1.7601005  0.028771746   -1.7313287 
  961000    6.6016541    -1.764856  0.031573238   -1.7332828 
  962000    6.7228838   -1.7575683  0.032153034   -1.7254152 
  963000    4.0686959    -1.763326  0.019459048   -1.7438669 
  964000    8.4674495   -1.7581089  0.040496639   -1.7176123 
  965000    7.1736836   -1.7588584  0.034309041   -1.7245493 
  966000    7.3865263   -1.7602854  0.035326988   -1.7249584 
  967000    8.0543135   -1.7579238  0.038520764    -1.719403 
  968000    7.3921486   -1.7538358  0.035353877    -1.718482 
  969000    6.2468274   -1.7602084  0.029876235   -1.7303322 
  970000    6.7283125   -1.7676478  0.032178998   -1.7354688 
  971000      6.12885    -1.754958  0.029311994    -1.725646 
  972000    9.0386715   -1.7464743   0.04322858   -1.7032457 
  973000    13.566793   -1.7212806   0.06488489   -1.6563957 
  974000    17.108202   -1.7195052  0.081822123   -1.6376831 
  975000    13.433925   -1.6980974  0.064249433    -1.633848 
  976000    16.475503   -1.7127953  0.078796159   -1.6339992 
  977000    15.380537     -1.70679  0.073559345   -1.6332307 
  978000     15.49657   -1.6909297  0.074114291   -1.6168155 
  979000    15.048284    -1.700851  0.071970304   -1.6288807 
  980000     16.53604   -1.7177085  0.079085685   -1.6386228 
  981000    8.8425815    -1.720382  0.042290755   -1.6780913 
  982000    13.831876   -1.7379336  0.066152682   -1.6717809 
  983000    10.696083   -1.7275277  0.051155359   -1.6763724 
  984000    15.081931   -1.7319647  0.072131225   -1.6598334 
  985000    9.5157159   -1.7413678  0.045510104   -1.6958576 
  986000    7.6710761   -1.7439988  0.036687883   -1.7073109 
  987000    7.2210909   -1.7441724  0.034535773   -1.7096366 
  988000    9.6424692   -1.7545013  0.046116318    -1.708385 
  989000    7.6745948   -1.7413308  0.036704712   -1.7046261 
  990000    9.8092789    -1.731675  0.046914106   -1.6847609 
  991000    6.7566173   -1.7462132  0.032314369   -1.7138989 
  992000    10.077201   -1.7444346  0.048195478   -1.6962392 
  993000    11.388288   -1.7347239  0.054465913   -1.6802579 
  994000    9.5881225   -1.7498801  0.045856398   -1.7040237 
  995000    6.9250237   -1.7556347  0.033119794   -1.7225149 
  996000    10.510646   -1.7414138  0.050268481   -1.6911453 
  997000    8.8185485    -1.740465  0.042175814   -1.6982892 
  998000     9.679655    -1.752223  0.046294163   -1.7059288 
  999000    11.453384    -1.752267  0.054777244   -1.6974897 
 1000000    10.324351    -1.743874  0.049377501   -1.6944965 
 1001000    11.688436    -1.729796  0.055901412   -1.6738946 
 1002000    12.955394   -1.7285656  0.061960798   -1.6666048 
 1003000    11.935149   -1.7338487  0.057081346   -1.6767673 
 1004000    12.378353   -1.7323207  0.059201024   -1.6731196 
 1005000    15.846497   -1.7349647  0.075787857   -1.6591768 
 1006000    12.669739    -1.731301  0.060594614   -1.6707064 
 1007000    13.343139   -1.7309267  0.063815237   -1.6671114 
 1008000    11.701947   -1.7328825  0.055966027   -1.6769165 
 1009000    14.495782   -1.7144728  0.069327896   -1.6451449 
 1010000    10.887643    -1.743649  0.052071518   -1.6915775 
 1011000    14.257679   -1.7266727  0.068189135   -1.6584836 
 1012000    13.321474   -1.7267523  0.063711619   -1.6630407 
 1013000    12.301189   -1.7223816  0.058831978   -1.6635496 
 1014000    14.141112   -1.7332074  0.067631642   -1.6655757 
 1015000    13.800028   -1.7185355  0.066000365   -1.6525351 
 1016000    10.452762   -1.7260028  0.049991644   -1.6760112 
 1017000    10.427014   -1.7397799  0.049868503   -1.6899114 
 1018000    12.877346   -1.7191975  0.061587521     -1.65761 
 1019000    11.727966   -1.7214326  0.056090467   -1.6653421 
 1020000    11.988946   -1.7198024  0.057338635   -1.6624638 
 1021000    14.340542   -1.7342278  0.068585442   -1.6656424 
 1022000    10.454623   -1.7212741  0.050000544   -1.6712735 
 1023000    10.911653    -1.729886  0.052186348   -1.6776996 
 1024000    16.228315    -1.727262  0.077613952   -1.6496481 
 1025000    14.664393   -1.7413493  0.070134296    -1.671215 
 1026000    13.111949   -1.7126499  0.062709539   -1.6499404 
 1027000    14.102495   -1.7307576  0.067446949   -1.6633107 
 1028000     12.51093   -1.7232668  0.059835092   -1.6634317 
 1029000    11.422237     -1.74386   0.05462828   -1.6892317 
 1030000    12.401628   -1.7322657   0.05931234   -1.6729533 
 1031000    13.411647   -1.7332268  0.064142885   -1.6690839 
 1032000    13.628609   -1.7407427  0.065180533   -1.6755622 
 1033000    10.930135   -1.7336712   0.05227474   -1.6813964 
 1034000    12.385943   -1.7363474  0.059237324   -1.6771101 
 1035000    11.434502   -1.7212406  0.054686941   -1.6665536 
 1036000    12.044316   -1.7477797  0.057603453   -1.6901762 
 1037000    9.8697576   -1.7347199  0.047203353   -1.6875166 
 1038000    18.439004   -1.6894262   0.08818685   -1.6012394 
 1039000    13.830461   -1.7119045  0.066145913   -1.6457586 
 1040000    15.671031   -1.7213683  0.074948672   -1.6464196 
 1041000    18.851339   -1.7189557  0.090158893   -1.6287968 
 1042000    19.153572   -1.6963373  0.091604361    -1.604733 
 1043000    12.715229   -1.6999015  0.060812178   -1.6390893 
 1044000    14.675505   -1.7124841  0.070187442   -1.6422967 
 1045000    16.825665   -1.7116805  0.080470853   -1.6312096 
 1046000     13.23713   -1.7021989  0.063308234   -1.6388907 
 1047000    18.291281    -1.710714  0.087480343   -1.6232337 
 1048000    17.517544   -1.7177117   0.08377985   -1.6339318 
 1049000    17.362984    -1.678434  0.083040647   -1.5953934 
 1050000    17.420999   -1.7080888  0.083318114   -1.6247707 
 1051000    14.953202   -1.7109068  0.071515561   -1.6393913 
 1052000    20.688555   -1.6803736   0.09894561    -1.581428 
 1053000    19.594913   -1.7085646  0.093715126   -1.6148495 
 1054000    19.710973   -1.7090233  0.094270202   -1.6147531 
 1055000    16.359574   -1.7182183  0.078241714   -1.6399766 
 1056000    15.428518   -1.6948108  0.073788823   -1.6210219 
 1057000    16.435879    -1.715657  0.078606653   -1.6370503 
 1058000    12.513667   -1.7402086  0.059848181   -1.6803604 
 1059000    10.817981   -1.7149875  0.051738351   -1.6632492 
 1060000    11.669707   -1.7368651  0.055811835   -1.6810533 
 1061000    12.155575   -1.7330338  0.058135561   -1.6748982 
 1062000    9.2109594   -1.7354154  0.044052568   -1.6913629 
 1063000    12.828076    -1.738429   0.06135188   -1.6770771 
 1064000    11.240304   -1.7149373  0.053758161   -1.6611792 
 1065000      11.8177   -1.7396871  0.056519632   -1.6831675 
 1066000    10.922888   -1.7294754  0.052240081   -1.6772353 
 1067000    13.066625   -1.7288723  0.062492772   -1.6663796 
 1068000    11.106125    -1.733821  0.053116435   -1.6807045 
 1069000    14.836546   -1.7252086  0.070957643   -1.6542509 
 1070000    13.024859   -1.7367447   0.06229302   -1.6744517 
 1071000    12.151651   -1.7425268  0.058116792     -1.68441 
 1072000    8.7730693   -1.7256229  0.041958304   -1.6836646 
 1073000    11.779246   -1.7352099  0.056335721   -1.6788742 
 1074000    14.266293   -1.7456852  0.068230334   -1.6774549 
 1075000     10.47742   -1.7425299  0.050109577   -1.6924203 
 1076000    9.9562963    -1.735451  0.047617235   -1.6878338 
 1077000    11.908862   -1.7457012  0.056955623   -1.6887456 
 1078000    12.649979   -1.7227016  0.060500109   -1.6622015 
 1079000    12.593938   -1.7345911  0.060232087    -1.674359 
 1080000    12.618456    -1.724014  0.060349348   -1.6636646 
 1081000    13.257445   -1.7288663  0.063405394   -1.6654609 
 1082000    9.5240114   -1.7483639  0.045549778   -1.7028141 
 1083000     12.49331   -1.7277302  0.059750821   -1.6679794 
 1084000    11.437188   -1.7371742  0.054699785   -1.6824744 
 1085000    9.5896777   -1.7404018  0.045863836   -1.6945379 
 1086000    10.960608   -1.7501927  0.052420484   -1.6977722 
 1087000    10.193785   -1.7397079  0.048753055   -1.6909549 
 1088000     11.14516   -1.7420237  0.053303123   -1.6887206 
 1089000      10.6736   -1.7678605   0.05104783   -1.7168127 
 1090000    8.2004877   -1.7606681  0.039219861   -1.7214482 
 1091000    6.9012988   -1.7588922  0.033006327   -1.7258859 
 1092000    8.7371052   -1.7664091  0.041786301   -1.7246228 
 1093000    8.8319476   -1.7596652  0.042239897   -1.7174253 
 1094000    6.8245707   -1.7658927  0.032639365   -1.7332533 
 1095000    7.9908728   -1.7594959  0.038217351   -1.7212786 
 1096000    6.2615679   -1.7538626  0.029946733   -1.7239158 
 1097000    6.9324831   -1.7676752   0.03315547   -1.7345197 
 1098000    5.3074343   -1.7626259   0.02538347   -1.7372425 
 1099000    7.0172644   -1.7597832  0.033560947   -1.7262223 
 1100000    6.8424408     -1.75421  0.032724831   -1.7214852 
 1101000    8.8483129   -1.7524647  0.042318166   -1.7101466 
 1102000    9.7461887   -1.7478459  0.046612369   -1.7012336 
 1103000    10.344423    -1.735068  0.049473502   -1.6855945 
 1104000    9.8160947   -1.7451517  0.046946704    -1.698205 
 1105000    8.3910335   -1.7632848   0.04013117   -1.7231536 
 1106000    7.4654644   -1.7636274  0.035704519   -1.7279229 
 1107000    6.0823797    -1.750181  0.029089743   -1.7210912 
 1108000    8.9580283   -1.7413468  0.042842894    -1.698504 
 1109000    8.7980218   -1.7524518  0.042077642   -1.7103742 
 1110000    10.416481    -1.751104  0.049818125   -1.7012859 
 1111000    10.423332   -1.7358478   0.04985089   -1.6859969 
 1112000    12.575897    -1.724481  0.060145803   -1.6643352 
 1113000    11.724733    -1.735022  0.056075007    -1.678947 
 1114000    12.996099   -1.7267387  0.062155471   -1.6645832 
 1115000    11.609628   -1.7143593  0.055524502   -1.6588348 
 1116000    11.963907   -1.7252761  0.057218883   -1.6680572 
 1117000    8.1729055   -1.7420524  0.039087945   -1.7029645 
 1118000    9.4767384   -1.7472824  0.045323689   -1.7019587 
 1119000     9.907816   -1.7568187  0.047385372   -1.7094334 
 1120000    7.9537803    -1.749724  0.038039952    -1.711684 
 1121000    9.7546184   -1.7412984  0.046652685   -1.6946457 
 1122000    10.065397   -1.7175929  0.048139023   -1.6694538 
 1123000    14.458219    -1.740481  0.069148245   -1.6713328 
 1124000    13.133416    -1.739375  0.062812209   -1.6765628 
 1125000    12.401228   -1.7314582  0.059310429   -1.6721478 
 1126000    8.7819675   -1.7315284  0.042000861   -1.6895276 
 1127000    10.346065   -1.7260667  0.049481352   -1.6765853 
 1128000    14.074114   -1.7335504  0.067311213   -1.6662392 
 1129000    13.837803   -1.7418448  0.066181029   -1.6756638 
 1130000    14.178437   -1.7325855  0.067810151   -1.6647754 
 1131000    12.702837   -1.7131222  0.060752909   -1.6523693 
 1132000    10.487296   -1.7246101  0.050156807   -1.6744533 
 1133000    15.623067   -1.7338741  0.074719275   -1.6591549 
 1134000    15.222252   -1.7261405  0.072802326   -1.6533382 
 1135000    13.626449   -1.7281746  0.065170201   -1.6630044 
 1136000    9.7915144   -1.7268814  0.046829145   -1.6800523 
 1137000     11.61573   -1.7291765  0.055553685   -1.6736228 
 1138000    12.033919   -1.7260403  0.057553728   -1.6684866 
 1139000    12.544037   -1.7333037  0.059993432   -1.6733102 
 1140000    9.6496696   -1.7292201  0.046150754   -1.6830694 
 1141000    10.596013   -1.7194349   0.05067676   -1.6687581 
 1142000    12.294665    -1.737276  0.058800777   -1.6784752 
 1143000      11.2485   -1.7349728   0.05379736   -1.6811754 
 1144000    10.214688   -1.7247299  0.048853025   -1.6758768 
 1145000    12.720729   -1.7357412  0.060838481   -1.6749027 
 1146000    10.798925   -1.7239911  0.051647214   -1.6723439 
 1147000    11.966976   -1.7375502  0.057233563   -1.6803167 
 1148000    10.685329   -1.7114525  0.051103926   -1.6603486 
 1149000    16.447032   -1.6923257   0.07865999   -1.6136657 
 1150000    19.603372    -1.710161  0.093755584   -1.6164054 
 1151000    18.037423    -1.712939  0.086266236   -1.6266727 
 1152000    14.079579   -1.7198212  0.067337352   -1.6524839 
 1153000    18.668097   -1.7091811  0.089282515   -1.6198986 
 1154000    15.213429    -1.688756  0.072760129   -1.6159958 
 1155000    14.569499   -1.7117699  0.069680457   -1.6420895 
 1156000    11.525502   -1.7405537  0.055122157   -1.6854315 
 1157000     12.60462   -1.7327937  0.060283176   -1.6725105 
 1158000    11.808753   -1.7236878  0.056476843    -1.667211 
 1159000    8.6207935   -1.7503656  0.041230026   -1.7091356 
 1160000    6.4584858   -1.7525075  0.030888518    -1.721619 
 1161000    7.9936805    -1.754066  0.038230779   -1.7158352 
 1162000    8.4683181   -1.7451342  0.040500793   -1.7046334 
 1163000    15.300319   -1.7148857  0.073175692     -1.64171 
 1164000    10.754798   -1.7329961  0.051436167   -1.6815599 
 1165000     11.86734   -1.7284783  0.056757043   -1.6717212 
 1166000    9.0948513   -1.7312617  0.043497267   -1.6877644 
 1167000    12.762148    -1.738516  0.061036571   -1.6774795 
 1168000     9.428722   -1.7465568  0.045094045   -1.7014627 
 1169000     9.372336    -1.741202  0.044824372   -1.6963777 
 1170000    10.504636   -1.7391008  0.050239739   -1.6888611 
 1171000    11.228791   -1.7172592  0.053703102   -1.6635561 
 1172000     12.25222   -1.7338311  0.058597779   -1.6752333 
 1173000    12.560763   -1.7329489  0.060073424   -1.6728755 
 1174000    17.764436   -1.6866123  0.084960643   -1.6016516 
 1175000    15.505708   -1.7152532  0.074157994   -1.6410952 
 1176000    21.747313   -1.7154387   0.10400925   -1.6114295 
 1177000    14.080591   -1.6803603  0.067342192   -1.6130181 
 1178000    16.786631   -1.7115694  0.080284169   -1.6312852 
 1179000    20.573921   -1.7008701  0.098397359   -1.6024728 
 1180000    13.228969   -1.7139949  0.063269202   -1.6507257 
 1181000    15.877744   -1.6923651  0.075937302   -1.6164278 
 1182000    16.099817   -1.7070686  0.076999391   -1.6300692 
 1183000    19.056463   -1.7265965  0.091139923   -1.6354566 
 1184000    15.690118   -1.7339466  0.075039958   -1.6589066 
 1185000    10.825591   -1.7385792  0.051774745   -1.6868044 
 1186000    16.926349   -1.7284612  0.080952388   -1.6475088 
 1187000    11.427649   -1.7376213  0.054654162   -1.6829671 
 1188000    8.7682874   -1.7327224  0.041935434   -1.6907869 
 1189000    12.361377    -1.736062  0.059119837   -1.6769422 
 1190000    11.945938   -1.7267916  0.057132944   -1.6696587 
 1191000    12.151655   -1.7306637  0.058116814   -1.6725469 
 1192000    11.261397   -1.7188331  0.053859043   -1.6649741 
 1193000    12.359408   -1.7289139  0.059110417   -1.6698034 
 1194000    13.009527    -1.739416  0.062219692   -1.6771963 
 1195000    12.643977   -1.7273266  0.060471404   -1.6668552 
 1196000    12.577236   -1.7117724  0.060152207   -1.6516202 
 1197000    16.327926   -1.7159203  0.078090354   -1.6378299 
 1198000    14.847832   -1.6896078  0.071011616   -1.6185962 
 1199000    13.953996   -1.7023515  0.066736735   -1.6356148 
 1200000    16.238451   -1.7172695   0.07766243   -1.6396071 
 1201000     19.51829   -1.7054503  0.093348667   -1.6121016 
 1202000    18.863433   -1.7175695  0.090216733   -1.6273528 
 1203000    13.990082   -1.7101281  0.066909319   -1.6432188 
 1204000    15.203983   -1.7026477  0.072714953   -1.6299327 
 1205000    18.240308   -1.6916259  0.087236558   -1.6043893 
 1206000    16.459269   -1.7160326  0.078718517   -1.6373141 
 1207000    12.539893   -1.7144529  0.059973612   -1.6544793 
 1208000     17.35085   -1.6951042  0.082982616   -1.6121215 
 1209000    13.852304   -1.7145397  0.066250382   -1.6482893 
 1210000    14.146567    -1.709267  0.067657731   -1.6416093 
 1211000     17.02711   -1.7297283  0.081434289    -1.648294 
 1212000    11.209105   -1.7393432   0.05360895   -1.6857343 
 1213000    13.558154   -1.7146883   0.06484357   -1.6498447 
 1214000    18.839113   -1.7015996  0.090100422   -1.6114991 
 1215000     17.59773    -1.708249   0.08416335   -1.6240857 
 1216000    12.514054   -1.7231395  0.059850032   -1.6632895 
 1217000    16.597546   -1.6898419  0.079379842   -1.6104621 
 1218000    12.993372   -1.7131397  0.062142431   -1.6509972 
 1219000    17.413222   -1.7177865  0.083280916   -1.6345056 
 1220000    15.050657   -1.6756343  0.071981652   -1.6036527 
 1221000    13.479975   -1.7119348  0.064469668   -1.6474651 
 1222000    15.663356    -1.702335  0.074911963    -1.627423 
 1223000    10.882965   -1.6935936  0.052049145   -1.6415444 
 1224000    14.456825   -1.7106882  0.069141577   -1.6415467 
 1225000    13.359356   -1.7262182  0.063892794   -1.6623254 
 1226000    17.899518    -1.715254  0.085606691   -1.6296473 
 1227000     17.69451   -1.7032629   0.08462621   -1.6186366 
 1228000    13.226862   -1.7094588  0.063259125   -1.6461997 
 1229000    14.814448   -1.6909347  0.070851957   -1.6200828 
 1230000    15.123356   -1.6929441  0.072329344   -1.6206147 
 1231000    15.458794    -1.691899  0.073933622   -1.6179654 
 1232000    14.700716   -1.7158782  0.070308018   -1.6455702 
 1233000    18.390561    -1.696001  0.087955164   -1.6080459 
 1234000     14.88972   -1.6901067  0.071211952   -1.6188948 
 1235000    18.299976   -1.7152273  0.087521931   -1.6277054 
 1236000    18.068984   -1.7145579   0.08641718   -1.6281408 
 1237000    12.119638   -1.6941429  0.057963688   -1.6361792 
 1238000    20.362836   -1.7210913  0.097387816   -1.6237035 
 1239000    16.090209   -1.6996403  0.076953441   -1.6226869 
 1240000    18.894503   -1.6986907   0.09036533   -1.6083254 
 1241000    15.424561   -1.7097686  0.073769895   -1.6359987 
 1242000    16.098708   -1.7055688  0.076994088   -1.6285747 
 1243000     21.05597   -1.6949592   0.10070282   -1.5942564 
 1244000    15.975292   -1.7287494  0.076403835   -1.6523456 
 1245000    17.654104   -1.6934456  0.084432965   -1.6090127 
 1246000    15.383711   -1.7017392  0.073574527   -1.6281647 
 1247000    18.013859   -1.7192908  0.086153539   -1.6331373 
 1248000    15.507665    -1.681552   0.07416735   -1.6073847 
 1249000    12.803582   -1.7119822  0.061234737   -1.6507475 
 1250000    19.768413   -1.7015761  0.094544913   -1.6070312 
 1251000    14.635671   -1.7106355  0.069996929   -1.6406385 
 1252000    12.110754   -1.6962593  0.057921198   -1.6383381 
 1253000    14.183709   -1.7010397  0.067835368   -1.6332044 
 1254000    22.177456   -1.7048169   0.10606646   -1.5987505 
 1255000    15.265844   -1.6767232  0.073010812   -1.6037124 
 1256000     14.79526   -1.7157009  0.070760186   -1.6449407 
 1257000    15.112643   -1.7129779  0.072278108   -1.6406998 
 1258000    11.737371   -1.7330043   0.05613545   -1.6768689 
 1259000    8.5767022   -1.7532247  0.041019154   -1.7122055 
 1260000    9.2876296   -1.7444012  0.044419253    -1.699982 
 1261000    9.0960688   -1.7486063  0.043503089   -1.7051032 
 1262000    8.9476656   -1.7345485  0.042793333   -1.6917552 
 1263000    6.8234097   -1.7487513  0.032633812   -1.7161175 
 1264000    11.015324   -1.7506716   0.05268217   -1.6979894 
[...]
 4697000    5.5961034    -1.771451  0.026764066    -1.744687 
 4698000    4.5521752   -1.7743912  0.021771348   -1.7526199 
 4699000      4.47268   -1.7718568  0.021391153   -1.7504656 
 4700000    4.0984848   -1.7666992  0.019601518   -1.7470977 
 4701000    6.4903823   -1.7700498  0.031041067   -1.7390088 
 4702000    4.9730608   -1.7764414  0.023784287   -1.7526571 
 4703000    3.3884879   -1.7797278  0.016205868   -1.7635219 
 4704000    3.8045021   -1.7769159  0.018195508   -1.7587204 
 4705000    3.6538822   -1.7752104   0.01747515   -1.7577353 
 4706000    2.8597647   -1.7769251  0.013677183   -1.7632479 
 4707000    4.9283687   -1.7717217  0.023570541   -1.7481512 
 4708000    4.9762253   -1.7704127  0.023799421   -1.7466133 
 4709000    5.8107073   -1.7708428  0.027790436   -1.7430523 
 4710000    4.8936076   -1.7726167  0.023404292   -1.7492124 
 4711000    6.3299156    -1.774921  0.030273615   -1.7446474 
 4712000    3.4613042   -1.7790891  0.016554121    -1.762535 
 4713000    3.8387414   -1.7778894  0.018359262   -1.7595301 
 4714000    3.8071716   -1.7770359  0.018208276   -1.7588276 
 4715000    3.4213211   -1.7745214  0.016362897   -1.7581585 
 4716000    3.3800169   -1.7858817  0.016165354   -1.7697164 
 4717000    3.5217282   -1.7741526  0.016843107   -1.7573095 
 4718000    2.9044611   -1.7773214  0.013890949   -1.7634304 
 4719000    4.3139479   -1.7800943  0.020631997   -1.7594623 
 4720000    3.3259739   -1.7748427  0.015906887   -1.7589358 
 4721000     2.857292   -1.7766404  0.013665357    -1.762975 
 4722000    3.6567314   -1.7808668  0.017488776    -1.763378 
 4723000    3.9035188    -1.773563  0.018669068   -1.7548939 
 4724000    4.2318206    -1.777942  0.020239213   -1.7577028 
 4725000    3.3797804   -1.7774705  0.016164224   -1.7613063 
 4726000    3.5362359   -1.7773695  0.016912491    -1.760457 
 4727000    4.3420725   -1.7750815  0.020766506    -1.754315 
 4728000    3.6764847   -1.7806669  0.017583249   -1.7630836 
 4729000    4.0087994   -1.7747739  0.019172586   -1.7556013 
 4730000    3.3931368   -1.7810348  0.016228102   -1.7648067 
 4731000    4.1004388   -1.7715107  0.019610862   -1.7518998 
 4732000    4.8008479   -1.7726012  0.022960657   -1.7496406 
 4733000    4.0885594   -1.7771619  0.019554048   -1.7576079 
 4734000    3.9905099   -1.7621368  0.019085114   -1.7430517 
 4735000    5.2374661   -1.7656257  0.025048838   -1.7405769 
 4736000    4.9957979   -1.7728752   0.02389303   -1.7489821 
 4737000    4.6455833   -1.7710801  0.022218084    -1.748862 
 4738000    4.5934646   -1.7714963   0.02196882   -1.7495275 
 4739000    4.7747744   -1.7689022  0.022835957   -1.7460662 
 4740000    4.4294089   -1.7674708  0.021184203   -1.7462866 
 4741000    4.8862475   -1.7756991  0.023369091     -1.75233 
 4742000    5.2049264   -1.7644967  0.024893213   -1.7396035 
 4743000    7.0953793   -1.7648463  0.033934541   -1.7309118 
 4744000    5.8069711   -1.7677198  0.027772567   -1.7399472 
 4745000    8.2436982   -1.7523397   0.03942652   -1.7129132 
 4746000    4.8223569   -1.7606627  0.023063527   -1.7375991 
 4747000    7.4815622    -1.761939  0.035781509   -1.7261575 
 4748000    7.2300493   -1.7651191  0.034578617   -1.7305405 
 4749000    8.2353345   -1.7688307   0.03938652   -1.7294441 
 4750000    7.0465519   -1.7599204  0.033701018   -1.7262194 
 4751000    6.1641036   -1.7655274  0.029480598   -1.7360468 
 4752000    5.8264594   -1.7620198  0.027865773    -1.734154 
 4753000    7.3985128   -1.7636011  0.035384315   -1.7282167 
 4754000     5.679322    -1.768922   0.02716207   -1.7417599 
 4755000    5.9545141    -1.765881   0.02847821   -1.7374028 
 4756000    6.1139323   -1.7592768  0.029240648   -1.7300361 
 4757000    6.2568492   -1.7565908  0.029924166   -1.7266667 
 4758000    5.9289615   -1.7492303  0.028356002   -1.7208743 
 4759000    6.7523684   -1.7682413  0.032294049   -1.7359472 
 4760000    6.5025924   -1.7701122  0.031099464   -1.7390128 
 4761000     3.828139    -1.768747  0.018308555   -1.7504384 
 4762000    4.8141933   -1.7715216  0.023024483   -1.7484972 
 4763000    6.4345968   -1.7723633  0.030774266    -1.741589 
 4764000    4.8314096   -1.7750313  0.023106822   -1.7519245 
 4765000    4.5794846   -1.7709095  0.021901959   -1.7490075 
 4766000    4.5655454   -1.7676701  0.021835293   -1.7458348 
 4767000     6.111788   -1.7673954  0.029230392    -1.738165 
 4768000    5.3253192   -1.7747927  0.025469007   -1.7493237 
 4769000    4.2671013    -1.769104  0.020407947    -1.748696 
 4770000     5.198034   -1.7671413  0.024860249   -1.7422811 
 4771000    4.4152038    -1.769743  0.021116266   -1.7486268 
 4772000    6.5879309   -1.7677348  0.031507605   -1.7362272 
 4773000    7.4503955     -1.76097   0.03563245   -1.7253376 
 4774000    5.8571901   -1.7530771  0.028012746   -1.7250643 
 4775000    6.9210585   -1.7627542   0.03310083   -1.7296534 
 4776000    7.8090571   -1.7601065  0.037347794   -1.7227587 
 4777000    6.3722529   -1.7680379  0.030476098   -1.7375618 
 4778000      6.97792   -1.7576008  0.033372777   -1.7242281 
 4779000    6.3435005   -1.7559897  0.030338586   -1.7256511 
 4780000    7.5215931    -1.762845  0.035972962   -1.7268721 
 4781000    5.3774512   -1.7630121  0.025718335   -1.7372937 
 4782000    6.2645215   -1.7625423  0.029960859   -1.7325815 
 4783000    6.1869971   -1.7588005  0.029590089   -1.7292104 
 4784000    8.0806913   -1.7589329  0.038646919    -1.720286 
 4785000    6.9287947   -1.7626098  0.033137829   -1.7294719 
 4786000     6.576499   -1.7561321  0.031452931   -1.7246792 
 4787000    7.2255015   -1.7636019  0.034556867   -1.7290451 
 4788000    6.2558725   -1.7611324  0.029919495   -1.7312129 
 4789000    5.5611564   -1.7575635  0.026596928   -1.7309666 
 4790000    5.7271756    -1.768953  0.027390935   -1.7415621 
 4791000     6.672789   -1.7623198   0.03191345   -1.7304063 
 4792000    6.6192726   -1.7582021  0.031657501   -1.7265446 
 4793000    6.0486639   -1.7625717  0.028928493   -1.7336432 
 4794000    12.030658   -1.7508318  0.057538132   -1.6932937 
 4795000    8.4308095    -1.753249  0.040321403   -1.7129276 
 4796000    7.7234297   -1.7475567  0.036938271   -1.7106184 
 4797000    8.8264443   -1.7595088  0.042213577   -1.7172952 
 4798000    9.7701955   -1.7571538  0.046727185   -1.7104266 
 4799000    9.5433714   -1.7387536   0.04564237   -1.6931113 
 4800000    9.1430002   -1.7504517  0.043727545   -1.7067241 
 4801000    10.237609    -1.746272  0.048962647   -1.6973094 
 4802000    7.6680583   -1.7474041   0.03667345   -1.7107306 
 4803000    10.230272   -1.7495248  0.048927558   -1.7005972 
 4804000    9.5498781   -1.7512907  0.045673489   -1.7056172 
 4805000    8.1671764   -1.7454791  0.039060545   -1.7064186 
 4806000    9.6164208   -1.7414871  0.045991738   -1.6954954 
 4807000    10.618549   -1.7334412  0.050784542   -1.6826566 
 4808000    16.275608   -1.7266734  0.077840136   -1.6488333 
 4809000    10.699896   -1.7302595  0.051173594   -1.6790859 
 4810000    13.608099   -1.7465217  0.065082439   -1.6814392 
 4811000    12.952723    -1.718099   0.06194802    -1.656151 
 4812000    11.893492    -1.729871  0.056882117   -1.6729888 
 4813000     12.16871   -1.7274394   0.05819838    -1.669241 
 4814000    13.755862   -1.7093845  0.065789136   -1.6435954 
 4815000    10.524285   -1.7249912   0.05033371   -1.6746575 
 4816000    12.052035   -1.7271256   0.05764037   -1.6694852 
 4817000    9.8556423   -1.7313869  0.047135845   -1.6842511 
 4818000    14.440669   -1.7369093  0.069064308   -1.6678449 
 4819000    16.339804   -1.7388494   0.07814716   -1.6607022 
 4820000    11.852557     -1.73167  0.056686342   -1.6749837 
 4821000    11.903748   -1.7320378  0.056931169   -1.6751066 
 4822000    11.176376   -1.7362579   0.05345242   -1.6828055 
 4823000    10.115769   -1.7332938  0.048379933   -1.6849139 
 4824000    12.624719   -1.7359743  0.060379304    -1.675595 
 4825000    13.950959   -1.7279422  0.066722208     -1.66122 
 4826000     9.026238   -1.7429789  0.043169115   -1.6998098 
 4827000    8.0560024   -1.7568117  0.038528841   -1.7182829 
 4828000    7.9493279   -1.7649944  0.038018657   -1.7269758 
 4829000    6.6590458   -1.7663701  0.031847721   -1.7345224 
 4830000    6.9238191   -1.7607592  0.033114033   -1.7276452 
 4831000    7.8132948   -1.7658163  0.037368062   -1.7284482 
 4832000    7.3753871   -1.7684299  0.035273714   -1.7331562 
 4833000    6.1183322   -1.7501118  0.029261691   -1.7208501 
 4834000    7.5018794   -1.7603221  0.035878679   -1.7244434 
 4835000    7.4675503   -1.7587249  0.035714496   -1.7230104 
 4836000    7.4096841   -1.7632493  0.035437743   -1.7278116 
 4837000    7.5735717   -1.7608619  0.036221556   -1.7246404 
 4838000    5.5226158   -1.7501854  0.026412602   -1.7237728 
 4839000    5.8354511   -1.7548596  0.027908777   -1.7269508 
 4840000    8.6533572   -1.7519818  0.041385766   -1.7105961 
 4841000    10.629234   -1.7366639  0.050835645   -1.6858282 
 4842000    9.0373555   -1.7513225  0.043222286   -1.7081002 
 4843000    10.359846     -1.75682  0.049547263   -1.7072728 
 4844000    10.909398   -1.7324998  0.052175563   -1.6803243 
 4845000    7.9123307   -1.7489034  0.037841713   -1.7110617 
 4846000    8.7472819   -1.7459624  0.041834972   -1.7041274 
 4847000     7.548779   -1.7511331  0.036102982   -1.7150301 
 4848000    8.7766027   -1.7487005  0.041975203   -1.7067253 
 4849000    8.4297666   -1.7388176  0.040316415   -1.6985012 
 4850000    9.1182678   -1.7259911  0.043609259   -1.6823819 
 4851000    13.317451   -1.7310588  0.063692379   -1.6673664 
 4852000     11.63561   -1.7277795  0.055648763   -1.6721308 
 4853000    13.279783   -1.7309743  0.063512229   -1.6674621 
 4854000    13.700238    -1.735264  0.065523105   -1.6697409 
 4855000    9.6072425   -1.7253643  0.045947841   -1.6794164 
 4856000    12.524406   -1.7320907   0.05989954   -1.6721912 
 4857000     10.82395   -1.7224426  0.051766896   -1.6706757 
 4858000    10.746627   -1.7332202  0.051397091   -1.6818231 
 4859000    10.205586   -1.7297468  0.048809496   -1.6809373 
 4860000    11.611567   -1.7173242  0.055533777   -1.6617904 
 4861000     17.06196   -1.7032173  0.081600962   -1.6216163 
 4862000    15.070561   -1.6941548  0.072076848    -1.622078 
 4863000    13.985474   -1.6901659  0.066887282   -1.6232787 
 4864000    16.537075   -1.7118988  0.079090635   -1.6328082 
 4865000    11.926465   -1.7476747  0.057039815   -1.6906349 
 4866000    11.969012   -1.7156584  0.057243302   -1.6584151 
 4867000    12.603396   -1.6926361  0.060277319   -1.6323587 
 4868000     14.29023   -1.7102295  0.068344817   -1.6418847 
 4869000     16.29475   -1.7022077  0.077931683    -1.624276 
 4870000    17.753784   -1.7071306  0.084909696   -1.6222209 
 4871000    16.881912   -1.7063678  0.080739858   -1.6256279 
 4872000    20.867364   -1.7022438  0.099800786    -1.602443 
 4873000    15.221578   -1.7164016  0.072799105   -1.6436025 
 4874000    15.358185   -1.6862814  0.073452444    -1.612829 
 4875000    16.164647   -1.7198232  0.077309452   -1.6425137 
 4876000     15.97666   -1.7174612  0.076410378   -1.6410508 
 4877000    13.817431   -1.7051726  0.066083596    -1.639089 
 4878000    18.989136   -1.6888675  0.090817923   -1.5980496 
 4879000    22.180257    -1.719324   0.10607986   -1.6132442 
 4880000    14.637363    -1.708556  0.070005025    -1.638551 
 4881000    16.340367   -1.6932138  0.078149853    -1.615064 
 4882000    15.784734   -1.7124776  0.075492468   -1.6369851 
 4883000    18.909795   -1.7126566  0.090438463   -1.6222182 
 4884000    14.076375   -1.7173743  0.067322028   -1.6500523 
 4885000    16.666373   -1.6983139  0.079709017   -1.6186049 
 4886000     14.18176   -1.6920732  0.067826046   -1.6242472 
 4887000    13.069593   -1.6987896  0.062506969   -1.6362826 
 4888000    16.976375   -1.7158587   0.08119164   -1.6346671 
 4889000    20.000816   -1.6999524  0.095656408    -1.604296 
 4890000    17.117451   -1.7048198  0.081866356   -1.6229535 
 4891000    19.656054   -1.7100785  0.094007543   -1.6160709 
 4892000    21.514594   -1.6946247   0.10289624   -1.5917284 
 4893000    15.650132   -1.7099425  0.074848716   -1.6350938 
 4894000    18.999443   -1.7076281  0.090867216   -1.6167609 
 4895000    13.325416   -1.7035469  0.063730473   -1.6398164 
 4896000    14.581947   -1.7215439   0.06973999   -1.6518039 
 4897000    14.445316   -1.7128178  0.069086536   -1.6437312 
 4898000     16.02942   -1.7169084  0.076662709   -1.6402457 
 4899000    16.060431   -1.7031923  0.076811027   -1.6263813 
 4900000    16.711974   -1.7177927  0.079927111   -1.6378655 
 4901000    15.485158   -1.7159421  0.074059712   -1.6418824 
 4902000    18.739403   -1.7080927  0.089623543   -1.6184691 
 4903000    17.679433   -1.7140499  0.084554105   -1.6294958 
 4904000    17.399471   -1.6984959  0.083215149   -1.6152807 
 4905000    14.832137   -1.7153907  0.070936556   -1.6444542 
 4906000    12.984427    -1.703098  0.062099648   -1.6409984 
 4907000    15.879198   -1.6967588  0.075944254   -1.6208146 
 4908000    16.280275   -1.7280829  0.077862458   -1.6502204 
 4909000    18.756615   -1.7073536  0.089705863   -1.6176478 
 4910000    11.858707   -1.6703734  0.056715751   -1.6136576 
 4911000    18.785903   -1.7240971  0.089845938   -1.6342512 
 4912000    18.611619   -1.6907437  0.089012403   -1.6017313 
 4913000    17.722281   -1.7070665  0.084759031   -1.6223075 
 4914000    14.427761   -1.7007976  0.069002577    -1.631795 
 4915000    17.090094   -1.7040533  0.081735517   -1.6223178 
 4916000    18.015313   -1.7180335  0.086160491    -1.631873 
 4917000    13.990294   -1.7161948  0.066910333   -1.6492844 
 4918000    12.453827   -1.7104758  0.059561989   -1.6509138 
 4919000    18.400951   -1.7000871  0.088004853   -1.6120822 
 4920000    17.738005   -1.7124548  0.084834232   -1.6276206 
 4921000    17.772452   -1.7044756   0.08499898   -1.6194766 
 4922000    11.969532   -1.7097212  0.057245788   -1.6524754 
 4923000    16.508768   -1.6928727  0.078955253   -1.6139174 
 4924000    16.036366   -1.7189136   0.07669593   -1.6422176 
 4925000     14.57842    -1.715641  0.069723123   -1.6459179 
 4926000    16.511233   -1.7122438   0.07896704   -1.6332767 
 4927000    13.061387   -1.7213872   0.06246772   -1.6589195 
 4928000    11.279899   -1.7338252  0.053947533   -1.6798777 
 4929000    13.360161   -1.7296592  0.063896643   -1.6657625 
 4930000    10.502094   -1.7374416  0.050227579    -1.687214 
 4931000     15.52808   -1.7380898  0.074264989   -1.6638248 
 4932000    11.577537   -1.7249563  0.055371021   -1.6695852 
 4933000    13.858909   -1.7379606  0.066281968   -1.6716786 
 4934000     12.01054   -1.7285038  0.057441912   -1.6710619 
 4935000     12.46219   -1.7309965  0.059601984   -1.6713946 
 4936000    13.627596   -1.7183743  0.065175685   -1.6531986 
 4937000    14.066005   -1.7301562  0.067272432   -1.6628838 
 4938000    10.421999   -1.7366267  0.049844518   -1.6867821 
 4939000     11.16695   -1.7208337  0.053407337   -1.6674263 
 4940000    9.6184301   -1.7221057  0.046001348   -1.6761044 
 4941000    12.359898   -1.7280948   0.05911276   -1.6689821 
 4942000    10.064042   -1.7177269  0.048132541   -1.6695944 
 4943000    14.074254   -1.7394208  0.067311882   -1.6721089 
 4944000    13.378058   -1.7356567   0.06398224   -1.6716744 
 4945000    10.395583   -1.7249879  0.049718178   -1.6752697 
 4946000    11.191951   -1.7384286  0.053526907   -1.6849017 
 4947000    14.030722   -1.7440071  0.067103689   -1.6769035 
 4948000    12.192613   -1.7319403  0.058312698   -1.6736277 
 4949000    11.300103   -1.7492585  0.054044157   -1.6952143 
 4950000    10.779587   -1.7459444  0.051554725   -1.6943896 
 4951000    10.131737   -1.7543857  0.048456302   -1.7059294 
 4952000    9.8845646   -1.7451469  0.047274169   -1.6978728 
 4953000    12.270816   -1.7080842  0.058686715   -1.6493974 
 4954000    10.708745   -1.7345128  0.051215914   -1.6832969 
 4955000    14.332782   -1.7347189  0.068548325   -1.6661706 
 4956000     12.48393   -1.7315945  0.059705959   -1.6718885 
 4957000    11.662365   -1.7191014  0.055776724   -1.6633247 
 4958000    19.256374   -1.6959383  0.092096024   -1.6038422 
 4959000    14.101843   -1.7044409  0.067443831   -1.6369971 
 4960000    16.659494   -1.7133542  0.079676119   -1.6336781 
 4961000    12.085605   -1.7242364  0.057800919   -1.6664355 
 4962000    13.071591   -1.7466037   0.06251652   -1.6840872 
 4963000    11.735891   -1.7162224  0.056128369   -1.6600941 
 4964000    13.246673   -1.6876406  0.063353872   -1.6242867 
 4965000    16.952677   -1.6740526  0.081078302   -1.5929743 
 4966000    14.176677   -1.7190929  0.067801735   -1.6512912 
 4967000    14.198866   -1.7005391  0.067907859   -1.6326312 
 4968000    13.822936   -1.6952323  0.066109923   -1.6291224 
 4969000    16.905209   -1.7079738  0.080851281   -1.6271226 
 4970000    12.674343   -1.7043605  0.060616633   -1.6437439 
 4971000     15.10566   -1.6920106  0.072244714   -1.6197659 
 4972000    13.800198   -1.7174683  0.066001177   -1.6514671 
 4973000    16.730983   -1.6995418  0.080018025   -1.6195238 
 4974000    18.218318   -1.7195934  0.087131388    -1.632462 
 4975000     16.23814   -1.6956858  0.077660942   -1.6180248 
 4976000    16.970563   -1.7104215  0.081163843   -1.6292576 
 4977000    19.974439   -1.6966708  0.095530257   -1.6011406 
 4978000     18.30854   -1.7134645  0.087562886   -1.6259016 
 4979000    14.000119     -1.69686  0.066957322   -1.6299027 
 4980000    16.123606   -1.6982689  0.077113165   -1.6211557 
 4981000    15.785983   -1.6981507  0.075498441   -1.6226522 
 4982000    18.088645   -1.6759371  0.086511212   -1.5894259 
 4983000    14.692349   -1.7163565  0.070268001   -1.6460885 
 4984000    15.896939   -1.7117342  0.076029104   -1.6357051 
 4985000    17.441957   -1.6984446  0.083418346   -1.6150262 
 4986000    17.543001   -1.6950506  0.083901604    -1.611149 
 4987000    15.021598   -1.7221116  0.071842677   -1.6502689 
 4988000    18.212874   -1.7067728  0.087105355   -1.6196675 
 4989000    16.591485   -1.6915023  0.079350856   -1.6121515 
 4990000    14.458207    -1.717044  0.069148187   -1.6478958 
 4991000    14.522189   -1.7000648  0.069454188   -1.6306106 
 4992000    15.842999   -1.6969483  0.075771129   -1.6211772 
 4993000    16.876678   -1.7096217   0.08071483   -1.6289069 
 4994000    17.349139   -1.7105014  0.082974431   -1.6275269 
 4995000    18.460237   -1.7043996    0.0882884   -1.6161112 
 4996000    16.627586    -1.701439  0.079523517   -1.6219155 
 4997000    18.080655    -1.715336  0.086473001    -1.628863 
 4998000    17.073816   -1.7053749  0.081657664   -1.6237172 
 4999000    14.851643   -1.6943046  0.071029844   -1.6232748 
 5000000    17.125862   -1.7119875  0.081906582   -1.6300809 
Loop time of 1276.16 on 1 procs for 5000000 steps with 38 atoms

Performance: 338.516 ns/day, 0.071 hours/ns, 3918.010 timesteps/s
97.6% CPU use with 1 MPI tasks x no OpenMP threads

MPI task timing breakdown:
Section |  min time  |  avg time  |  max time  |%varavg| %total
---------------------------------------------------------------
Pair    | 1214.5     | 1214.5     | 1214.5     |   0.0 | 95.17
Neigh   | 5.5075e-05 | 5.5075e-05 | 5.5075e-05 |   0.0 |  0.00
Comm    | 1.0858     | 1.0858     | 1.0858     |   0.0 |  0.09
Output  | 0.18799    | 0.18799    | 0.18799    |   0.0 |  0.01
Modify  | 16.752     | 16.752     | 16.752     |   0.0 |  1.31
Other   |            | 43.6       |            |       |  3.42

Nlocal:        38.0000 ave          38 max          38 min
Histogram: 1 0 0 0 0 0 0 0 0 0
Nghost:        0.00000 ave           0 max           0 min
Histogram: 1 0 0 0 0 0 0 0 0 0
Neighs:        0.00000 ave           0 max           0 min
Histogram: 1 0 0 0 0 0 0 0 0 0

Total # of neighbors = 0
Ave neighs/atom = 0.0000000
Neighbor list builds = 189
Dangerous builds = 0
neighbor            0.3        bin


Total wall time: 0:21:16
