LAMMPS (29 Oct 2020)
Running on 12 partitions of processors
Step T0 T1 T2 T3 T4 T5 T6 T7 T8 T9 T10 T11
0 0 1 2 3 4 5 6 7 8 9 10 11
1000 0 1 2 3 4 5 6 7 8 9 10 11
2000 0 1 2 3 4 5 6 7 8 10 9 11
3000 0 1 2 3 4 5 7 6 8 10 9 11
4000 0 1 2 3 4 5 7 6 8 10 9 11
5000 0 1 2 3 4 5 7 6 8 10 9 11
6000 0 1 2 3 4 5 7 6 8 10 9 11
7000 0 1 2 3 5 4 7 6 8 10 9 11
8000 0 1 2 3 5 4 7 6 8 9 10 11
9000 0 1 2 3 5 4 7 6 8 9 10 11
10000 0 1 2 3 5 4 8 6 7 9 10 11
11000 0 1 2 3 5 4 8 6 7 10 9 11
12000 0 1 2 3 5 4 8 6 7 10 9 11
13000 0 1 3 2 5 4 8 6 7 10 9 11
14000 0 1 3 2 4 5 8 6 7 10 9 11
15000 0 1 3 2 4 5 8 6 7 10 9 11
16000 0 1 3 2 4 5 8 6 7 10 9 11
17000 0 1 3 2 4 5 8 7 6 10 9 11
18000 0 1 3 2 4 5 8 7 6 11 9 10
19000 0 1 3 2 4 5 8 7 6 11 9 10
20000 0 1 3 2 4 5 8 7 6 11 9 10
21000 0 1 3 2 4 5 8 7 6 11 9 10
22000 0 1 3 2 4 6 8 7 5 11 9 10
23000 0 1 3 2 4 6 8 7 5 11 9 10
24000 0 1 3 2 4 6 8 7 5 11 9 10
25000 0 1 3 2 4 6 8 7 5 11 9 10
26000 0 1 3 2 4 6 8 7 5 11 9 10
27000 1 0 3 2 4 6 8 7 5 11 9 10
28000 1 0 3 2 4 6 8 7 5 11 9 10
29000 1 0 3 2 4 7 8 6 5 11 9 10
30000 1 0 3 2 4 7 8 6 5 11 9 10
31000 1 0 3 2 4 7 8 6 5 11 9 10
32000 1 0 3 2 4 7 8 6 5 11 9 10
33000 1 0 3 2 4 7 8 6 5 11 9 10
34000 1 0 3 2 4 7 8 6 5 11 9 10
35000 1 0 3 2 4 7 8 6 5 11 9 10
36000 1 0 3 2 4 6 8 7 5 11 9 10
37000 1 0 3 2 4 6 8 7 5 11 9 10
38000 1 0 3 2 4 6 8 7 5 11 9 10
39000 1 0 3 2 4 7 8 6 5 11 9 10
40000 1 0 3 2 4 7 8 6 5 11 9 10
41000 1 0 3 2 4 7 8 6 5 11 9 10
42000 1 0 3 2 4 7 8 6 5 11 9 10
43000 1 0 3 2 4 7 8 6 5 11 10 9
44000 1 0 3 2 4 7 8 6 5 11 9 10
45000 1 0 2 3 4 7 8 6 5 11 9 10
46000 1 0 2 3 4 7 8 6 5 11 9 10
47000 1 0 2 3 4 7 8 6 5 11 9 10
48000 1 0 2 3 4 7 8 6 5 11 9 10
49000 1 0 2 3 4 7 8 6 5 11 9 10
50000 1 0 2 3 4 7 8 6 5 11 9 10
51000 1 0 2 3 4 7 8 6 5 11 9 10
52000 1 0 2 3 4 7 8 6 5 11 9 10
53000 1 0 2 3 4 7 8 6 5 11 9 10
54000 1 0 2 3 4 7 8 6 5 11 9 10
55000 0 1 2 3 4 7 8 6 5 11 9 10
56000 1 0 2 3 4 7 8 6 5 11 9 10
57000 1 0 2 3 4 6 8 7 5 11 9 10
58000 1 0 2 3 4 6 8 7 5 11 9 10
59000 1 0 2 3 4 6 8 7 5 11 9 10
60000 1 0 2 3 4 6 8 7 5 11 9 10
61000 1 0 2 3 4 6 8 7 5 11 9 10
62000 1 0 2 3 4 5 8 7 6 11 9 10
63000 1 0 2 4 3 6 8 7 5 11 9 10
64000 1 0 2 4 3 6 8 7 5 11 9 10
65000 1 0 2 4 3 6 8 7 5 11 9 10
66000 1 0 2 3 4 6 8 7 5 11 9 10
67000 1 0 2 3 4 6 8 7 5 11 9 10
68000 1 0 2 3 4 6 8 7 5 11 9 10
69000 1 0 2 4 3 6 8 7 5 11 10 9
70000 1 0 2 5 3 6 8 7 4 11 10 9
71000 1 0 2 5 3 6 8 7 4 11 9 10
72000 1 0 2 5 3 6 8 7 4 11 9 10
73000 0 1 2 5 3 6 8 7 4 11 9 10
74000 0 1 2 5 3 6 8 7 4 11 9 10
75000 0 1 2 5 3 6 8 7 4 11 9 10
76000 0 1 2 5 3 6 8 7 4 10 9 11
77000 0 2 1 5 3 6 7 8 4 10 9 11
78000 1 2 0 5 3 7 6 8 4 10 9 11
79000 1 2 0 5 3 7 6 8 4 10 9 11
80000 1 2 0 5 3 7 6 8 4 10 9 11
81000 1 2 0 5 3 7 6 8 4 10 9 11
82000 1 2 0 5 3 7 6 8 4 10 9 11
83000 1 3 0 4 2 7 6 8 5 10 9 11
84000 1 3 0 4 2 7 6 8 5 11 9 10
85000 1 3 0 4 2 7 6 8 5 11 9 10
86000 1 3 0 4 2 7 6 8 5 11 9 10
87000 1 3 0 4 2 7 6 8 5 11 9 10
88000 1 3 0 4 2 7 6 8 5 11 9 10
89000 1 3 0 4 2 7 6 8 5 10 9 11
90000 1 3 0 4 2 7 6 8 5 10 9 11
91000 2 3 0 4 1 7 6 8 5 9 10 11
92000 1 4 0 3 2 7 5 8 6 9 10 11
93000 0 4 1 3 2 7 5 8 6 9 10 11
94000 0 4 1 3 2 7 5 8 6 9 10 11
95000 0 4 1 3 2 7 5 8 6 9 10 11
96000 0 4 1 3 2 7 5 8 6 9 10 11
97000 0 4 1 3 2 7 5 8 6 9 10 11
98000 0 4 1 2 3 6 5 8 7 9 10 11
99000 0 4 1 2 3 6 5 8 7 9 10 11
100000 0 4 2 1 3 6 5 8 7 9 10 11
101000 0 4 2 1 3 6 5 8 7 9 10 11
102000 0 4 2 1 3 6 5 8 7 9 10 11
103000 0 5 2 1 3 6 4 8 7 9 10 11
104000 0 5 2 1 3 6 4 8 7 9 10 11
105000 0 5 2 1 3 6 4 9 7 8 10 11
106000 0 5 2 1 3 6 4 9 7 8 10 11
107000 1 5 2 0 3 6 4 8 7 9 10 11
108000 1 5 2 0 3 6 4 8 7 9 10 11
109000 1 5 2 0 4 6 3 8 7 9 10 11
110000 1 5 2 0 4 6 3 8 7 9 10 11
111000 1 5 2 0 4 6 3 8 7 9 10 11
112000 1 5 2 0 4 6 3 8 7 9 10 11
113000 1 5 2 0 3 6 4 8 7 9 10 11
114000 1 5 2 0 3 7 4 8 6 9 10 11
115000 1 5 2 0 3 7 4 8 6 9 10 11
116000 0 5 2 1 3 7 4 8 6 9 10 11
117000 0 5 2 1 3 7 4 8 6 9 10 11
118000 0 5 1 2 3 7 4 8 6 9 10 11
119000 0 5 1 2 4 7 3 8 6 9 10 11
120000 0 5 1 2 4 7 3 8 6 9 10 11
121000 0 5 1 2 4 7 3 8 6 9 10 11
122000 0 5 1 2 4 7 3 8 6 9 10 11
123000 0 5 1 2 4 7 3 8 6 9 10 11
124000 0 6 1 2 4 7 3 8 5 9 10 11
125000 0 6 1 2 4 7 3 8 5 9 10 11
126000 0 6 1 2 4 7 3 8 5 10 9 11
127000 0 6 1 2 4 7 3 8 5 10 9 11
128000 0 6 1 2 4 7 3 8 5 10 9 11
129000 0 6 1 2 4 7 3 8 5 10 9 11
130000 0 6 1 2 4 7 3 8 5 10 9 11
131000 0 6 1 2 4 7 3 8 5 10 9 11
132000 0 6 1 2 4 7 3 8 5 10 9 11
133000 0 6 1 2 4 7 3 8 5 10 9 11
134000 0 6 1 2 4 8 3 7 5 10 9 11
135000 0 6 1 2 4 8 3 7 5 10 9 11
136000 0 6 1 2 4 8 3 7 5 10 9 11
137000 0 6 1 2 4 8 3 7 5 10 9 11
138000 0 6 1 2 4 8 3 7 5 10 9 11
139000 0 6 1 2 4 8 3 7 5 10 9 11
140000 0 6 1 2 4 8 3 7 5 10 9 11
141000 0 6 1 2 4 8 3 7 5 10 9 11
142000 0 6 1 2 3 8 4 7 5 10 9 11
143000 0 6 2 1 3 8 4 7 5 10 9 11
144000 0 6 2 1 3 8 4 7 5 10 9 11
145000 0 6 1 2 3 8 4 7 5 10 9 11
146000 0 6 1 2 3 8 4 7 5 10 9 11
147000 0 6 1 2 3 8 4 7 5 10 9 11
148000 0 6 1 2 3 8 4 7 5 9 10 11
149000 1 6 0 2 3 8 4 7 5 9 10 11
150000 1 6 0 2 4 8 3 7 5 10 9 11
151000 1 6 0 2 4 8 3 7 5 10 9 11
152000 1 6 0 2 4 8 3 7 5 9 10 11
153000 1 6 0 2 4 8 3 7 5 9 10 11
154000 1 6 0 2 4 8 3 7 5 10 9 11
155000 1 7 0 2 4 8 3 6 5 10 9 11
156000 1 7 0 2 4 8 3 6 5 11 9 10
157000 0 7 1 2 4 8 3 6 5 11 9 10
158000 0 7 1 2 4 8 3 6 5 11 9 10
159000 1 7 0 2 4 8 3 6 5 11 9 10
160000 1 7 0 2 4 8 3 6 5 11 9 10
161000 1 7 0 2 4 8 3 6 5 11 9 10
162000 1 7 0 2 4 8 3 6 5 11 9 10
163000 1 7 0 2 3 8 4 6 5 11 9 10
164000 1 7 0 2 3 8 4 6 5 11 9 10
165000 0 7 1 3 2 8 4 6 5 11 9 10
166000 0 6 1 3 2 8 4 7 5 11 9 10
167000 0 6 1 3 2 8 4 7 5 11 9 10
168000 0 7 1 3 2 8 4 6 5 11 9 10
169000 0 8 1 3 2 7 4 6 5 11 9 10
170000 0 8 1 2 3 6 4 7 5 10 9 11
171000 0 8 1 2 3 6 4 7 5 10 9 11
172000 0 8 1 2 3 6 4 7 5 10 9 11
173000 1 8 0 2 3 6 4 7 5 10 9 11
174000 1 8 0 2 4 6 3 7 5 9 10 11
175000 0 8 1 2 4 6 3 7 5 9 10 11
176000 0 8 1 2 4 6 3 7 5 9 10 11
177000 0 8 1 2 4 6 3 7 5 9 10 11
178000 0 8 1 2 4 6 3 7 5 10 9 11
179000 0 8 1 3 4 6 2 7 5 10 9 11
180000 0 8 1 3 4 6 2 7 5 10 9 11
181000 0 8 1 3 4 6 2 7 5 10 9 11
182000 0 8 1 3 4 5 2 7 6 9 10 11
183000 0 8 1 3 4 5 2 7 6 9 10 11
184000 0 8 1 3 4 5 2 7 6 10 9 11
185000 0 8 1 3 4 5 2 7 6 9 10 11
186000 0 8 1 3 4 5 2 7 6 9 10 11
187000 0 8 1 3 4 5 2 7 6 9 10 11
188000 0 8 1 3 4 5 2 7 6 9 11 10
189000 0 8 1 3 4 5 2 7 6 9 11 10
190000 0 8 1 3 4 5 2 7 6 9 10 11
191000 1 8 0 3 4 5 2 7 6 9 10 11
192000 1 8 0 3 4 5 2 7 6 10 9 11
193000 1 8 0 3 4 5 2 6 7 10 9 11
194000 1 8 0 3 4 5 2 6 7 10 9 11
195000 1 8 0 3 4 6 2 5 7 10 9 11
196000 0 8 1 3 4 6 2 5 7 10 9 11
197000 1 8 0 3 4 6 2 5 7 10 9 11
198000 1 8 0 3 4 6 2 5 7 10 9 11
199000 1 8 0 3 4 6 2 5 7 10 9 11
200000 1 8 0 3 4 6 2 5 7 10 9 11
201000 0 8 1 3 4 6 2 5 7 10 9 11
202000 0 8 1 3 4 6 2 5 7 10 9 11
203000 0 7 1 3 4 6 2 5 8 10 9 11
204000 0 7 1 3 4 6 2 5 8 10 9 11
205000 0 7 1 4 3 6 2 5 8 10 9 11
206000 1 7 0 4 3 6 2 5 8 10 9 11
207000 1 7 0 4 3 6 2 5 8 10 9 11
208000 1 7 0 4 3 6 2 5 8 10 9 11
209000 1 7 0 4 3 6 2 5 8 10 9 11
210000 1 7 0 4 3 6 2 5 8 10 9 11
211000 0 7 1 4 3 6 2 5 8 10 9 11
212000 0 7 1 4 3 6 2 5 8 11 9 10
213000 0 6 1 4 3 7 2 5 8 11 9 10
214000 0 6 1 4 3 7 2 5 8 11 9 10
215000 0 6 1 4 3 7 2 5 8 11 9 10
216000 0 6 1 4 2 7 3 5 8 10 9 11
217000 0 6 1 4 2 7 3 5 8 10 9 11
218000 0 6 1 4 2 7 3 5 8 10 9 11
219000 0 6 1 4 2 7 3 5 8 10 9 11
220000 0 6 1 4 2 7 3 5 8 10 9 11
221000 0 6 1 4 2 7 3 5 8 9 10 11
222000 0 6 1 4 2 7 3 5 8 10 9 11
223000 0 6 1 4 2 7 3 5 8 10 9 11
224000 0 6 1 4 2 8 3 5 7 9 10 11
225000 0 6 1 4 2 8 3 5 7 9 10 11
226000 0 6 1 4 2 8 3 5 7 9 10 11
227000 0 6 1 4 2 8 3 5 7 9 10 11
228000 0 6 1 4 2 8 3 5 7 9 10 11
229000 0 6 1 3 2 8 4 5 7 9 10 11
230000 0 6 1 3 2 8 4 5 7 9 10 11
231000 0 6 1 3 2 8 4 5 7 9 10 11
232000 1 6 0 3 2 8 4 5 7 9 10 11
233000 1 6 0 4 2 8 3 5 7 10 9 11
234000 1 6 0 4 2 8 3 5 7 10 9 11
235000 1 6 0 4 2 8 3 5 7 10 9 11
236000 1 6 0 4 2 8 3 5 7 9 10 11
237000 1 5 0 4 2 8 3 6 7 10 9 11
238000 1 5 0 4 3 8 2 6 7 10 9 11
239000 1 5 0 4 3 8 2 6 7 10 9 11
240000 1 5 0 4 3 8 2 6 7 10 9 11
241000 1 5 0 4 3 8 2 6 7 10 9 11
242000 0 5 1 4 3 8 2 6 7 10 9 11
243000 0 5 1 4 3 8 2 6 7 9 10 11
244000 0 5 1 4 3 8 2 6 7 9 10 11
245000 0 5 1 4 3 8 2 6 7 9 10 11
246000 0 5 2 4 3 8 1 6 7 9 10 11
247000 0 5 2 4 3 8 1 6 7 9 10 11
248000 0 5 2 4 3 8 1 6 7 9 10 11
249000 0 5 2 4 3 8 1 6 7 9 10 11
250000 0 5 2 3 4 8 1 6 7 9 10 11
251000 0 5 2 3 4 8 1 6 7 9 10 11
252000 1 5 2 3 4 8 0 6 7 9 10 11
253000 1 5 2 3 4 8 0 6 7 9 10 11
254000 1 5 2 3 4 8 0 6 7 9 10 11
255000 1 5 2 4 3 8 0 6 7 9 10 11
256000 1 5 2 4 3 8 0 6 7 9 10 11
257000 1 5 2 4 3 8 0 6 7 9 10 11
258000 1 5 2 4 3 8 0 7 6 9 10 11
259000 2 5 1 4 3 8 0 7 6 9 10 11
260000 2 5 1 4 3 8 0 7 6 9 10 11
261000 2 4 0 5 3 8 1 6 7 9 10 11
262000 2 4 0 5 3 8 1 6 7 9 10 11
263000 2 4 0 5 3 8 1 6 7 9 10 11
264000 2 4 0 5 3 8 1 6 7 9 10 11
265000 2 4 0 5 3 8 1 6 7 9 10 11
266000 2 4 0 5 3 8 1 6 7 9 10 11
267000 2 4 0 5 3 8 1 6 7 9 10 11
268000 2 4 0 5 3 8 1 6 7 9 10 11
269000 2 4 0 5 3 8 1 6 7 9 10 11
270000 2 4 0 5 3 8 1 6 7 9 10 11
271000 2 4 1 5 3 8 0 6 7 9 10 11
272000 2 4 1 5 3 8 0 6 7 9 10 11
273000 2 4 1 5 3 8 0 6 7 9 10 11
274000 2 4 1 5 3 8 0 6 7 9 10 11
275000 2 4 1 5 3 8 0 6 7 9 10 11
276000 2 4 1 5 3 8 0 6 7 9 10 11
277000 2 4 1 5 3 8 0 6 7 9 10 11
278000 2 4 1 5 3 8 0 6 7 9 10 11
279000 2 4 1 6 3 8 0 5 7 9 10 11
280000 2 4 1 6 3 8 0 5 7 9 10 11
281000 2 4 0 6 3 8 1 5 7 9 10 11
282000 2 4 0 6 3 8 1 5 7 9 10 11
283000 2 4 0 5 3 8 1 6 7 9 10 11
284000 2 4 0 5 3 8 1 6 7 9 10 11
285000 2 4 0 5 3 7 1 6 8 9 10 11
286000 2 3 0 5 4 8 1 6 7 9 10 11
287000 2 3 0 5 4 8 1 6 7 9 10 11
288000 2 3 0 5 4 8 1 6 7 9 10 11
289000 2 3 0 5 4 8 1 6 7 9 10 11
290000 2 3 0 5 4 8 1 6 7 9 10 11
291000 2 3 0 5 4 8 1 6 7 9 10 11
292000 2 3 0 5 4 8 1 6 7 9 10 11
293000 2 4 0 5 3 8 1 6 7 9 10 11
294000 2 4 0 5 3 8 1 6 7 9 10 11
295000 2 4 0 5 3 8 1 6 7 9 10 11
296000 2 4 0 5 3 8 1 6 7 9 10 11
297000 2 4 0 5 3 8 1 6 7 9 10 11
298000 2 4 0 5 3 8 1 6 7 9 10 11
299000 2 4 0 5 3 8 1 6 7 9 10 11
300000 2 5 0 4 3 8 1 6 7 9 10 11
301000 2 5 0 4 3 8 1 6 7 9 10 11
302000 2 5 1 4 3 8 0 6 7 9 10 11
303000 2 5 1 4 3 8 0 7 6 9 10 11
304000 2 5 1 4 3 8 0 7 6 9 10 11
305000 2 5 1 4 3 8 0 7 6 9 10 11
306000 2 5 1 4 3 8 0 7 6 9 10 11
307000 2 5 1 4 3 8 0 7 6 9 10 11
308000 2 5 1 4 3 8 0 7 6 9 10 11
309000 2 5 1 4 3 8 0 7 6 9 10 11
310000 2 5 1 4 3 8 0 7 6 9 10 11
311000 2 5 1 4 3 8 0 7 6 9 10 11
312000 2 5 1 4 3 8 0 7 6 9 10 11
313000 2 5 1 4 3 8 0 7 6 9 10 11
314000 2 5 1 4 3 8 0 7 6 9 10 11
315000 2 5 1 4 3 8 0 7 6 9 10 11
316000 2 5 1 3 4 8 0 7 6 9 10 11
317000 3 4 1 2 5 8 0 7 6 9 10 11
318000 3 4 1 2 5 8 0 7 6 9 10 11
319000 3 5 1 2 4 8 0 6 7 9 10 11
320000 3 5 1 2 4 8 0 6 7 9 10 11
321000 3 5 1 2 4 8 0 6 7 9 11 10
322000 3 5 1 2 4 8 0 6 7 9 11 10
323000 3 5 1 2 4 8 0 6 7 9 11 10
324000 3 4 1 2 5 8 0 7 6 9 11 10
325000 3 4 1 2 5 8 0 7 6 9 11 10
326000 3 4 1 2 5 8 0 7 6 9 11 10
327000 3 4 1 2 5 8 0 7 6 9 11 10
328000 3 4 1 2 5 8 0 7 6 9 11 10
329000 3 4 1 2 5 8 0 7 6 9 11 10
330000 4 3 1 2 5 8 0 7 6 9 11 10
331000 4 2 1 3 5 8 0 6 7 9 11 10
332000 4 2 1 3 5 8 0 6 7 10 11 9
333000 4 1 2 3 5 8 0 6 7 10 11 9
334000 3 1 2 4 5 8 0 6 7 9 11 10
335000 3 1 2 4 5 8 0 6 7 9 11 10
336000 3 1 2 4 5 8 0 6 7 9 11 10
337000 3 1 2 5 4 9 0 6 7 8 11 10
338000 3 1 2 5 4 9 0 6 7 8 11 10
339000 4 1 2 5 3 10 0 6 7 8 11 9
340000 4 1 2 5 3 10 0 6 7 8 11 9
341000 3 2 1 5 4 9 0 6 7 8 11 10
342000 3 2 1 5 4 9 0 6 7 8 11 10
343000 3 2 1 5 4 9 0 6 7 8 11 10
344000 3 2 1 5 4 9 0 6 7 8 11 10
345000 3 2 1 6 4 9 0 5 7 8 11 10
346000 4 2 1 6 3 9 0 5 7 8 11 10
347000 4 2 1 6 3 9 0 5 7 8 10 11
348000 4 2 1 6 3 9 0 5 7 8 10 11
349000 3 2 1 6 4 9 0 5 7 8 10 11
350000 3 2 1 6 4 9 0 5 7 8 10 11
351000 3 2 1 7 4 8 0 5 6 9 10 11
352000 3 2 0 7 4 8 1 5 6 9 11 10
353000 4 2 0 7 3 8 1 5 6 9 11 10
354000 4 2 0 7 3 8 1 5 6 9 11 10
355000 4 2 1 7 3 8 0 5 6 9 11 10
356000 4 2 0 7 3 8 1 5 6 9 11 10
357000 4 2 0 7 3 8 1 5 6 9 11 10
358000 4 2 0 7 3 8 1 5 6 9 11 10
359000 4 2 1 7 3 8 0 5 6 9 11 10
360000 4 2 1 7 3 8 0 5 6 9 11 10
361000 3 2 1 7 4 8 0 5 6 9 11 10
362000 3 2 1 7 4 8 0 5 6 9 11 10
363000 3 2 1 7 4 8 0 5 6 9 11 10
364000 3 2 1 7 4 8 0 5 6 9 11 10
365000 4 2 1 7 3 8 0 5 6 9 11 10
366000 4 2 1 7 3 8 0 5 6 9 11 10
367000 4 2 1 7 3 8 0 5 6 9 11 10
368000 4 2 1 7 3 8 0 6 5 9 11 10
369000 4 2 1 7 3 8 0 6 5 9 11 10
370000 4 2 1 7 3 9 0 6 5 8 11 10
371000 4 2 1 7 3 9 0 5 6 8 11 10
372000 4 3 1 7 2 9 0 5 6 8 11 10
373000 4 3 1 7 2 8 0 5 6 9 11 10
374000 4 3 1 7 2 9 0 5 6 8 11 10
375000 4 3 0 7 2 9 1 5 6 8 11 10
376000 4 3 0 7 2 9 1 5 6 8 11 10
377000 4 3 0 7 2 9 1 5 6 8 11 10
378000 4 3 0 7 2 10 1 5 6 8 11 9
379000 4 3 0 7 2 10 1 5 6 8 11 9
380000 4 3 0 7 2 10 1 5 6 8 11 9
381000 4 3 0 7 2 10 1 5 6 8 11 9
382000 4 3 0 7 2 9 1 5 6 8 11 10
383000 4 3 0 7 2 9 1 5 6 8 11 10
384000 4 3 0 7 2 9 1 5 6 8 11 10
385000 4 3 0 7 2 9 1 5 6 8 11 10
386000 4 3 0 7 2 10 1 5 6 8 11 9
387000 4 3 0 7 2 10 1 5 6 8 11 9
388000 4 3 0 7 2 10 1 5 6 8 11 9
389000 4 3 0 7 2 10 1 5 6 8 11 9
390000 4 3 0 7 2 10 1 5 6 9 11 8
391000 4 3 0 7 2 10 1 6 5 9 11 8
392000 4 3 0 7 2 10 1 6 5 8 11 9
393000 5 3 0 7 2 10 1 6 4 8 11 9
394000 5 2 0 7 3 10 1 6 4 8 11 9
395000 5 2 0 7 3 10 1 6 4 8 11 9
396000 5 2 0 7 3 10 1 6 4 8 11 9
397000 5 2 0 7 3 10 1 6 4 8 11 9
398000 6 2 0 7 4 10 1 5 3 8 11 9
399000 6 2 0 7 4 10 1 5 3 9 11 8
400000 6 2 0 7 4 10 1 5 3 9 11 8
401000 6 2 0 7 4 10 1 5 3 9 11 8
402000 6 2 0 7 4 10 1 5 3 9 11 8
403000 6 1 0 7 4 10 2 5 3 9 11 8
404000 6 1 0 7 4 10 2 5 3 9 11 8
405000 6 1 0 7 4 10 2 5 3 9 11 8
406000 6 1 0 7 4 10 2 5 3 9 11 8
407000 6 2 0 7 4 10 1 5 3 9 11 8
408000 6 2 0 7 4 10 1 5 3 9 11 8
409000 6 2 0 7 4 10 1 5 3 9 11 8
410000 5 2 0 7 3 10 1 6 4 9 11 8
411000 5 2 0 7 3 10 1 6 4 9 11 8
412000 5 2 0 7 3 10 1 6 4 9 11 8
413000 5 2 0 7 3 10 1 6 4 9 11 8
414000 6 2 0 7 3 9 1 5 4 10 11 8
415000 6 2 0 7 4 9 1 5 3 10 11 8
416000 6 2 0 7 4 9 1 5 3 10 11 8
417000 6 2 0 7 4 9 1 5 3 10 11 8
418000 6 2 0 7 4 9 1 5 3 10 11 8
419000 7 2 0 6 4 9 1 5 3 10 11 8
420000 7 2 1 6 4 9 0 5 3 10 11 8
421000 7 2 1 6 4 9 0 5 3 10 11 8
422000 7 2 1 6 4 9 0 5 3 10 11 8
423000 7 2 1 6 4 9 0 5 3 10 11 8
424000 7 2 1 6 4 9 0 5 3 10 11 8
425000 7 2 1 6 5 9 0 4 3 10 11 8
426000 7 2 1 5 6 10 0 4 3 9 11 8
427000 7 2 1 5 6 10 0 4 3 9 11 8
428000 7 2 1 5 6 10 0 4 3 9 11 8
429000 7 2 1 5 6 10 0 4 3 9 11 8
430000 7 2 0 5 6 10 1 4 3 8 11 9
431000 7 2 0 5 6 10 1 4 3 8 11 9
432000 7 2 0 5 6 10 1 4 3 8 11 9
433000 7 2 1 5 6 11 0 4 3 8 10 9
434000 7 2 1 5 6 11 0 4 3 8 10 9
435000 7 2 1 5 6 11 0 4 3 8 10 9
436000 7 2 1 5 6 11 0 4 3 9 10 8
437000 6 2 0 5 7 11 1 4 3 9 10 8
438000 5 2 0 6 7 11 1 4 3 10 9 8
439000 6 2 0 5 7 11 1 4 3 10 9 8
440000 6 2 0 5 7 11 1 4 3 10 9 8
441000 6 2 0 5 7 11 1 4 3 10 8 9
442000 5 2 0 6 7 11 1 4 3 10 8 9
443000 5 2 0 6 7 11 1 4 3 10 8 9
444000 5 2 0 6 7 11 1 4 3 10 8 9
445000 6 2 0 5 7 11 1 4 3 10 8 9
446000 6 2 0 5 7 11 1 4 3 10 8 9
447000 6 3 0 5 7 11 1 4 2 10 8 9
448000 6 3 0 5 7 11 1 4 2 10 8 9
449000 6 3 0 5 7 11 1 4 2 10 8 9
450000 6 3 0 5 7 11 1 4 2 9 8 10
451000 6 3 0 5 7 11 1 4 2 9 8 10
452000 6 3 0 5 7 10 1 4 2 9 8 11
453000 6 3 0 5 7 11 1 4 2 9 8 10
454000 6 3 0 5 7 11 1 4 2 9 8 10
455000 6 3 0 5 7 11 1 4 2 9 8 10
456000 6 3 0 5 7 11 1 4 2 9 8 10
457000 6 3 0 5 7 10 1 4 2 9 8 11
458000 6 3 0 5 7 10 1 4 2 9 8 11
459000 6 3 0 5 7 10 1 4 2 9 8 11
460000 6 3 0 5 7 10 1 4 2 9 8 11
461000 6 3 0 5 7 10 1 4 2 9 8 11
462000 6 3 0 5 7 10 1 4 2 9 8 11
463000 6 3 0 5 7 10 1 4 2 9 8 11
464000 6 3 0 5 7 10 1 4 2 9 8 11
465000 6 3 0 5 7 10 1 4 2 9 8 11
466000 6 3 0 5 7 10 1 4 2 9 8 11
467000 5 3 0 6 7 10 1 4 2 9 8 11
468000 6 3 0 5 7 10 1 4 2 9 8 11
469000 6 3 0 5 7 9 1 4 2 10 8 11
470000 6 3 0 5 7 10 1 4 2 9 8 11
471000 7 3 0 5 6 10 1 4 2 9 8 11
472000 7 3 0 6 5 10 1 4 2 9 8 11
473000 7 2 0 6 5 11 1 4 3 9 8 10
474000 7 2 0 6 5 11 1 4 3 9 8 10
475000 7 2 0 6 5 11 1 4 3 9 8 10
476000 7 2 0 6 5 11 1 4 3 9 8 10
477000 7 3 0 6 5 11 1 4 2 9 8 10
478000 7 3 0 6 5 11 1 4 2 9 8 10
479000 7 2 0 6 5 11 1 4 3 9 8 10
480000 7 1 0 6 5 11 2 4 3 9 8 10
481000 7 1 0 5 6 11 2 4 3 9 8 10
482000 7 1 0 5 6 11 2 4 3 9 8 10
483000 7 1 0 5 6 11 2 4 3 9 8 10
484000 7 1 0 6 5 11 2 4 3 9 8 10
485000 7 2 0 6 5 11 1 4 3 9 8 10
486000 7 2 0 6 5 11 1 3 4 9 8 10
487000 7 2 0 6 5 11 1 3 4 9 8 10
488000 7 2 0 6 5 11 1 3 4 9 8 10
489000 7 2 0 6 5 11 1 3 4 9 8 10
490000 7 2 0 5 6 11 1 3 4 9 8 10
491000 7 2 0 5 6 11 1 3 4 9 8 10
492000 7 2 0 5 6 11 1 3 4 9 8 10
493000 7 2 0 5 6 10 1 3 4 9 8 11
494000 7 2 1 5 6 10 0 3 4 9 8 11
495000 7 2 1 5 6 10 0 3 4 9 8 11
496000 7 2 1 6 5 10 0 3 4 9 8 11
497000 7 2 1 6 5 10 0 3 4 9 8 11
498000 7 2 0 6 5 10 1 3 4 9 8 11
499000 7 2 1 6 5 10 0 3 4 9 8 11
500000 7 2 0 6 5 10 1 3 4 9 8 11
501000 7 2 0 5 6 10 1 4 3 9 8 11
502000 7 2 0 5 6 10 1 4 3 9 8 11
503000 7 2 0 5 6 9 1 4 3 10 8 11
504000 7 2 0 5 6 9 1 4 3 10 8 11
505000 7 2 0 5 6 9 1 4 3 10 8 11
506000 7 2 0 5 6 9 1 4 3 10 8 11
507000 7 2 0 6 5 9 1 4 3 10 8 11
508000 7 2 0 6 5 9 1 4 3 10 8 11
509000 7 2 0 6 5 8 1 4 3 10 9 11
510000 7 2 0 6 5 8 1 4 3 10 9 11
511000 7 2 0 6 5 8 1 4 3 10 9 11
512000 7 2 0 6 5 8 1 4 3 10 9 11
513000 7 2 0 6 5 8 1 4 3 10 9 11
514000 7 2 0 6 5 8 1 4 3 10 9 11
515000 7 2 0 5 6 8 1 4 3 10 9 11
516000 7 2 0 5 6 8 1 4 3 10 9 11
517000 7 2 0 5 6 9 1 4 3 10 8 11
518000 7 2 0 5 6 9 1 4 3 10 8 11
519000 6 3 0 4 7 9 1 5 2 10 8 11
520000 6 3 0 5 7 9 1 4 2 10 8 11
521000 6 3 0 5 7 9 1 4 2 10 8 11
522000 6 4 0 5 7 9 1 3 2 10 8 11
523000 6 4 0 5 7 9 1 3 2 10 8 11
524000 6 4 0 5 7 9 1 3 2 10 8 11
525000 6 4 0 5 7 10 1 3 2 9 8 11
526000 6 4 0 5 7 10 1 3 2 8 9 11
527000 6 4 0 5 7 10 1 3 2 8 9 11
528000 6 5 0 4 7 10 1 3 2 9 8 11
529000 6 5 0 4 7 10 1 3 2 9 8 11
530000 6 5 0 4 7 10 1 3 2 9 8 11
531000 6 5 0 4 7 10 1 3 2 9 8 11
532000 6 5 0 4 7 10 1 3 2 9 8 11
533000 6 5 0 4 7 10 1 3 2 9 8 11
534000 6 5 0 4 7 10 1 3 2 9 8 11
535000 6 5 0 4 7 10 1 3 2 9 8 11
536000 6 5 0 4 7 10 1 3 2 9 8 11
537000 6 5 0 4 7 10 1 3 2 9 8 11
538000 6 5 0 4 7 10 1 3 2 9 8 11
539000 6 5 0 4 7 10 1 3 2 9 8 11
540000 5 6 0 4 7 10 1 3 2 9 8 11
541000 5 6 0 4 7 10 1 3 2 9 8 11
542000 5 6 0 4 7 9 1 3 2 10 8 11
543000 5 6 0 4 7 8 1 3 2 10 9 11
544000 5 6 0 4 7 8 1 3 2 10 9 11
545000 5 6 0 4 7 8 1 3 2 10 9 11
546000 5 6 0 4 7 8 1 3 2 10 9 11
547000 5 6 0 4 7 8 1 3 2 10 9 11
548000 5 6 0 4 7 8 1 3 2 10 9 11
549000 5 6 0 4 7 8 1 3 2 10 9 11
550000 5 6 0 4 7 8 1 3 2 10 9 11
551000 5 6 0 4 7 8 1 3 2 10 9 11
552000 5 6 0 3 7 8 1 4 2 10 9 11
553000 5 6 0 3 7 8 1 4 2 10 9 11
554000 5 6 0 3 7 8 1 4 2 9 10 11
555000 5 6 0 3 7 9 1 4 2 8 10 11
556000 5 6 0 3 7 9 1 4 2 8 10 11
557000 5 6 0 2 7 9 1 4 3 8 10 11
558000 5 6 0 2 7 9 1 4 3 8 10 11
559000 5 6 1 2 7 8 0 4 3 9 10 11
560000 5 6 1 3 7 8 0 4 2 9 10 11
561000 5 6 1 3 7 8 0 4 2 9 10 11
562000 5 6 1 3 7 8 0 4 2 9 10 11
563000 5 6 1 3 7 8 0 4 2 9 10 11
564000 5 6 1 3 7 8 0 4 2 10 9 11
565000 5 7 0 3 6 8 1 4 2 10 9 11
566000 5 7 0 3 6 8 1 4 2 10 9 11
567000 5 7 0 3 6 8 1 4 2 10 9 11
568000 5 7 0 3 6 8 1 4 2 9 10 11
569000 5 7 0 4 6 8 1 3 2 9 10 11
570000 5 7 0 4 6 9 1 3 2 8 10 11
571000 6 7 0 4 5 9 1 3 2 8 10 11
572000 6 7 0 4 5 9 1 3 2 8 10 11
573000 5 7 0 4 6 10 1 3 2 8 9 11
574000 5 7 0 4 6 10 1 3 2 8 9 11
575000 5 7 0 4 6 10 2 3 1 8 9 11
576000 5 7 0 4 6 10 3 2 1 8 9 11
577000 5 7 0 4 6 10 3 2 1 8 9 11
578000 5 7 0 4 6 10 3 2 1 9 8 11
579000 5 7 0 4 6 10 2 3 1 9 8 11
580000 5 7 0 4 6 10 2 3 1 9 8 11
581000 5 7 0 3 6 10 2 4 1 9 8 11
582000 5 7 0 3 6 9 2 4 1 10 8 11
583000 5 7 0 3 6 9 2 4 1 10 8 11
584000 5 7 0 3 6 8 2 4 1 10 9 11
585000 5 7 0 3 6 8 2 4 1 10 9 11
586000 5 7 0 3 6 8 2 4 1 10 9 11
587000 5 7 0 3 6 8 2 4 1 10 9 11
588000 6 7 0 3 5 8 2 4 1 10 9 11
589000 6 7 0 3 5 8 2 4 1 10 9 11
590000 6 7 0 3 5 8 2 4 1 10 9 11
591000 6 7 0 3 5 8 2 4 1 10 9 11
592000 6 7 0 3 5 8 2 4 1 10 9 11
593000 6 7 0 3 5 8 2 4 1 9 10 11
594000 5 7 0 3 6 8 2 4 1 9 10 11
595000 5 7 0 3 6 8 2 4 1 9 10 11
596000 5 7 0 3 6 8 1 4 2 9 10 11
597000 5 7 0 3 6 8 1 4 2 9 10 11
598000 5 7 0 3 6 8 1 4 2 9 10 11
599000 5 7 0 3 6 8 1 4 2 9 10 11
600000 5 7 0 3 6 8 1 4 2 9 10 11
601000 5 7 0 4 6 8 1 3 2 10 9 11
602000 5 7 1 4 6 8 0 3 2 10 9 11
603000 5 7 1 4 6 8 0 3 2 10 9 11
604000 5 6 1 4 7 8 0 3 2 10 9 11
605000 5 6 1 4 7 8 0 3 2 10 9 11
606000 5 6 1 4 7 8 0 3 2 10 9 11
607000 5 6 1 4 7 8 0 3 2 10 9 11
608000 5 6 1 4 7 8 0 3 2 10 9 11
609000 4 6 1 5 7 8 0 3 2 10 9 11
610000 4 6 1 5 7 9 0 3 2 10 8 11
611000 4 6 0 5 7 9 1 3 2 10 8 11
612000 4 6 1 5 7 8 0 2 3 10 9 11
613000 5 7 1 4 6 8 0 2 3 10 9 11
614000 6 7 1 3 5 8 0 2 4 10 9 11
615000 6 7 1 3 5 8 0 2 4 10 9 11
616000 6 7 1 3 5 8 0 2 4 10 9 11
617000 6 7 1 3 5 8 0 2 4 9 10 11
618000 6 7 1 3 5 8 0 2 4 9 10 11
619000 6 7 1 3 5 8 0 2 4 9 10 11
620000 6 7 1 3 5 8 0 2 4 9 10 11
621000 6 7 1 3 5 8 0 2 4 9 10 11
622000 6 7 1 3 5 8 0 2 4 9 10 11
623000 6 7 1 3 5 8 0 2 4 10 9 11
624000 6 7 1 3 5 8 0 2 4 10 9 11
625000 6 7 1 3 5 8 0 2 4 10 9 11
626000 6 7 0 3 5 8 1 2 4 10 9 11
627000 7 6 0 2 5 8 1 3 4 10 9 11
628000 7 6 0 2 5 8 1 3 4 10 9 11
629000 7 6 0 2 5 8 1 3 4 10 9 11
630000 7 6 0 3 5 9 1 2 4 10 8 11
631000 7 6 0 3 5 9 1 2 4 10 8 11
632000 7 6 0 2 5 9 1 3 4 10 8 11
633000 7 6 0 2 5 9 1 3 4 10 8 11
634000 7 6 0 2 5 9 1 3 4 10 8 11
635000 7 6 0 2 5 9 1 3 4 10 8 11
636000 7 6 0 2 5 9 1 3 4 10 8 11
637000 7 6 0 3 4 9 1 2 5 10 8 11
638000 7 6 0 3 4 9 1 2 5 10 8 11
639000 7 6 0 3 4 9 1 2 5 10 8 11
640000 7 6 0 3 4 10 1 2 5 9 8 11
641000 7 6 0 3 5 10 1 2 4 9 8 11
642000 7 6 0 3 5 10 1 2 4 9 8 11
643000 7 6 0 3 5 9 1 2 4 10 8 11
644000 7 6 0 3 5 9 1 2 4 10 8 11
645000 7 5 0 4 6 10 2 1 3 9 8 11
646000 7 4 0 5 6 10 3 1 2 9 8 11
647000 7 4 0 5 6 10 3 1 2 9 8 11
648000 7 4 0 5 6 10 3 1 2 9 8 11
649000 7 4 0 5 6 10 3 1 2 9 8 11
650000 7 4 0 6 5 10 3 2 1 9 8 11
651000 7 4 0 6 5 9 3 2 1 10 8 11
652000 7 4 0 6 5 9 3 2 1 10 8 11
653000 6 4 0 7 5 8 3 2 1 11 9 10
654000 5 4 0 7 6 8 3 2 1 11 9 10
655000 5 4 0 7 6 8 3 2 1 11 9 10
656000 5 4 0 7 6 8 3 2 1 10 9 11
657000 5 4 0 7 6 8 3 2 1 10 9 11
658000 5 4 0 7 6 8 3 2 1 10 9 11
659000 5 4 0 6 7 9 3 2 1 10 8 11
660000 5 4 0 6 7 9 3 2 1 10 8 11
661000 5 4 0 6 7 9 3 2 1 10 8 11
662000 5 4 0 6 7 10 3 2 1 9 8 11
663000 5 4 0 6 7 11 3 2 1 9 8 10
664000 5 4 0 6 7 11 3 2 1 9 8 10
665000 5 4 0 6 7 11 3 2 1 9 8 10
666000 5 4 0 6 7 11 3 2 1 9 8 10
667000 5 3 0 6 7 11 4 2 1 10 8 9
668000 5 3 0 6 7 11 4 2 1 10 8 9
669000 5 3 0 6 7 11 4 2 1 10 8 9
670000 5 4 0 6 7 11 3 2 1 10 8 9
671000 5 4 0 6 7 11 3 2 1 10 8 9
672000 5 4 0 6 7 11 3 2 1 10 8 9
673000 5 4 0 6 7 11 3 2 1 10 8 9
674000 5 4 0 6 7 11 3 2 1 10 8 9
675000 5 4 0 6 7 11 2 3 1 10 8 9
676000 5 4 0 6 7 11 2 3 1 9 8 10
677000 5 4 0 6 7 11 2 3 1 9 8 10
678000 5 4 0 6 7 11 2 3 1 10 8 9
679000 5 4 0 6 7 11 1 3 2 10 8 9
680000 5 4 0 6 7 10 1 3 2 11 8 9
681000 5 4 0 6 7 11 1 3 2 10 8 9
682000 5 4 0 6 7 11 1 3 2 10 8 9
683000 5 4 0 6 7 11 1 3 2 10 8 9
684000 5 4 0 7 6 11 1 3 2 10 8 9
685000 5 4 0 7 6 11 1 3 2 9 8 10
686000 5 4 0 7 6 11 1 2 3 9 8 10
687000 5 4 0 7 6 11 1 2 3 9 8 10
688000 5 3 0 7 6 11 1 2 4 9 8 10
689000 5 3 1 7 6 11 0 2 4 9 8 10
690000 5 3 1 6 7 11 0 2 4 9 8 10
691000 5 3 1 6 7 11 0 2 4 9 8 10
692000 5 3 1 6 7 11 0 2 4 9 8 10
693000 5 3 1 6 7 11 0 2 4 9 8 10
694000 5 3 1 6 7 11 0 2 4 9 8 10
695000 5 3 1 6 7 11 0 2 4 9 8 10
696000 5 3 2 6 7 11 0 1 4 9 8 10
697000 5 3 2 6 7 11 0 1 4 9 8 10
698000 5 3 2 6 7 11 0 1 4 9 8 10
699000 5 3 2 6 7 11 0 1 4 9 8 10
700000 5 3 2 7 6 11 0 1 4 9 8 10
701000 5 3 2 7 6 11 0 1 4 9 8 10
702000 5 3 2 7 6 11 0 1 4 9 8 10
703000 5 3 2 7 6 11 1 0 4 9 8 10
704000 5 3 2 7 6 11 1 0 4 9 8 10
705000 5 3 1 7 6 11 2 0 4 10 8 9
706000 5 3 1 7 6 11 2 0 4 10 8 9
707000 5 3 1 7 6 11 2 0 4 10 8 9
708000 5 3 0 7 6 11 2 1 4 10 8 9
709000 6 3 0 7 5 11 1 2 4 10 8 9
710000 6 3 0 7 5 11 1 2 4 10 8 9
711000 5 3 0 7 6 11 1 2 4 10 8 9
712000 4 3 0 7 6 11 1 2 5 10 8 9
713000 4 3 0 7 6 11 1 2 5 10 8 9
714000 4 3 0 7 6 11 1 2 5 10 8 9
715000 3 4 0 7 6 11 1 2 5 10 8 9
716000 3 4 0 6 7 11 1 2 5 10 8 9
717000 3 4 0 6 7 11 1 2 5 10 8 9
718000 3 4 0 6 7 11 1 2 5 10 8 9
719000 2 4 0 6 7 11 1 3 5 10 8 9
720000 2 3 0 5 7 11 1 4 6 9 8 10
721000 2 3 0 5 7 11 1 4 6 10 8 9
722000 1 3 0 6 7 11 2 4 5 10 8 9
723000 1 3 0 6 7 11 2 4 5 10 8 9
724000 0 3 1 6 7 11 2 4 5 10 8 9
725000 0 3 1 6 7 11 2 5 4 10 8 9
726000 0 3 1 5 7 11 2 6 4 10 8 9
727000 0 4 1 6 7 11 2 5 3 10 8 9
728000 0 4 1 6 7 11 2 5 3 10 8 9
729000 0 4 1 6 7 11 2 5 3 10 8 9
730000 0 4 1 6 7 11 2 5 3 10 8 9
731000 0 4 1 5 7 11 2 6 3 10 8 9
732000 0 3 1 5 7 11 2 6 4 9 8 10
733000 0 3 1 4 7 11 2 6 5 9 8 10
734000 0 3 1 4 7 11 2 6 5 9 8 10
735000 0 3 1 4 7 11 2 6 5 10 8 9
736000 0 3 1 4 7 11 2 6 5 10 8 9
737000 0 4 1 3 7 11 2 6 5 10 8 9
738000 0 4 1 3 7 11 2 6 5 10 8 9
739000 0 4 1 3 7 11 2 5 6 9 8 10
740000 0 3 1 4 7 11 2 5 6 10 8 9
741000 0 3 1 4 7 11 2 5 6 10 8 9
742000 0 3 1 4 7 11 2 5 6 10 8 9
743000 0 3 1 4 7 11 2 5 6 10 8 9
744000 0 3 1 4 6 11 2 5 7 10 8 9
745000 0 3 1 4 6 11 2 5 7 10 8 9
746000 0 3 1 4 6 11 2 5 7 10 8 9
747000 0 3 1 4 6 11 2 5 7 10 8 9
748000 0 3 1 4 6 11 2 5 7 10 8 9
749000 0 3 1 4 6 11 2 5 7 10 8 9
750000 0 3 1 4 7 11 2 5 6 10 8 9
751000 0 3 2 4 7 11 1 5 6 10 8 9
752000 0 3 2 4 7 11 1 5 6 10 8 9
753000 0 3 2 4 7 11 1 5 6 10 8 9
754000 0 3 2 4 7 11 1 5 6 10 8 9
755000 0 3 2 4 7 11 1 5 6 9 8 10
756000 0 3 2 4 7 11 1 5 6 8 9 10
757000 0 3 2 4 7 11 1 5 6 8 9 10
758000 0 3 2 4 7 11 1 5 6 9 8 10
759000 0 3 2 4 7 11 1 5 6 9 8 10
760000 0 3 2 4 7 11 1 5 6 10 8 9
761000 0 3 2 5 7 11 1 4 6 10 8 9
762000 0 3 2 5 7 11 1 4 6 10 8 9
763000 0 3 2 5 7 11 1 4 6 10 8 9
764000 1 3 2 4 7 11 0 5 6 10 8 9
765000 1 3 2 4 7 11 0 5 6 9 8 10
766000 1 3 2 4 7 11 0 5 6 9 8 10
767000 1 4 2 3 7 11 0 5 6 9 8 10
768000 1 4 2 3 7 11 0 5 6 9 8 10
769000 0 4 2 3 7 11 1 5 6 9 8 10
770000 0 4 2 3 7 11 1 5 6 9 8 10
771000 0 4 2 3 7 11 1 5 6 9 8 10
772000 0 4 2 3 7 11 1 5 6 9 8 10
773000 0 4 2 3 7 11 1 5 6 9 8 10
774000 0 4 2 3 7 11 1 5 6 9 8 10
775000 1 4 2 3 7 11 0 5 6 9 8 10
776000 1 4 2 3 7 11 0 5 6 9 8 10
777000 1 4 3 2 7 11 0 5 6 9 8 10
778000 1 4 3 2 7 11 0 5 6 9 8 10
779000 1 4 3 2 7 11 0 5 6 9 8 10
780000 1 4 3 2 7 11 0 5 6 9 8 10
781000 1 4 3 2 7 11 0 5 6 10 8 9
782000 1 4 3 2 7 11 0 5 6 10 8 9
783000 1 4 3 2 7 11 0 5 6 10 8 9
784000 1 3 4 2 7 11 0 5 6 9 8 10
785000 1 3 4 2 7 11 0 5 6 9 8 10
786000 1 3 4 2 7 11 0 5 6 9 8 10
787000 1 3 4 2 7 11 0 5 6 9 8 10
788000 1 4 3 2 7 11 0 5 6 9 8 10
789000 0 4 3 2 7 11 1 5 6 9 8 10
790000 0 5 3 2 7 11 1 4 6 9 8 10
791000 0 5 3 2 7 11 1 4 6 9 8 10
792000 0 5 3 2 7 10 1 4 6 9 8 11
793000 0 4 3 2 7 11 1 5 6 9 8 10
794000 0 4 3 2 7 11 1 5 6 9 8 10
795000 0 4 3 2 7 11 1 6 5 9 8 10
796000 0 3 4 2 7 11 1 6 5 9 8 10
797000 0 3 4 2 7 11 1 6 5 9 8 10
798000 1 3 4 2 7 11 0 6 5 9 8 10
799000 1 3 4 2 7 11 0 6 5 8 9 10
800000 1 3 4 2 7 11 0 6 5 8 9 10
801000 1 3 4 2 7 11 0 6 5 8 9 10
802000 1 3 4 2 7 11 0 6 5 8 9 10
803000 1 3 4 2 7 11 0 6 5 8 9 10
804000 1 3 4 2 7 11 0 6 5 8 9 10
805000 1 4 3 2 7 11 0 6 5 8 9 10
806000 1 4 3 2 7 11 0 6 5 9 8 10
807000 1 4 3 2 7 11 0 6 5 9 8 10
808000 1 4 3 2 7 11 0 6 5 9 8 10
809000 1 4 3 2 7 11 0 6 5 9 8 10
810000 1 4 3 2 7 11 0 6 5 9 8 10
811000 1 4 3 2 7 11 0 6 5 9 8 10
812000 1 4 3 2 7 11 0 6 5 9 8 10
813000 1 4 3 2 7 11 0 6 5 9 8 10
814000 1 4 3 2 7 11 0 5 6 9 8 10
815000 0 5 3 2 7 11 1 4 6 9 8 10
816000 0 5 3 2 7 11 1 4 6 9 8 10
817000 0 5 3 2 7 11 1 4 6 9 8 10
818000 0 5 3 2 7 11 1 4 6 9 8 10
819000 0 5 3 2 7 11 1 4 6 9 8 10
820000 0 5 2 3 7 11 1 4 6 9 8 10
821000 0 5 2 3 7 11 1 4 6 9 8 10
822000 1 5 2 3 7 11 0 4 6 9 8 10
823000 1 5 2 3 7 11 0 4 6 9 8 10
824000 1 5 2 3 7 11 0 4 6 9 8 10
825000 1 5 2 3 7 11 0 4 6 9 8 10
826000 1 5 2 3 7 11 0 4 6 9 8 10
827000 1 6 2 3 7 11 0 4 5 9 8 10
828000 1 6 2 3 7 11 0 4 5 9 8 10
829000 0 6 2 3 7 11 1 4 5 9 8 10
830000 0 6 2 3 7 11 1 4 5 9 8 10
831000 0 6 2 3 7 11 1 4 5 9 8 10
832000 0 6 2 3 7 11 1 4 5 9 8 10
833000 0 6 2 3 7 11 1 4 5 9 8 10
834000 0 6 2 3 7 11 1 4 5 9 8 10
835000 0 6 2 3 7 11 1 4 5 10 8 9
836000 0 6 2 3 7 11 1 4 5 10 8 9
837000 0 6 2 3 7 11 1 4 5 10 8 9
838000 1 7 2 3 6 11 0 4 5 10 8 9
839000 1 7 2 3 6 11 0 4 5 10 8 9
840000 1 7 2 3 6 11 0 4 5 10 8 9
841000 1 7 2 3 6 11 0 4 5 10 8 9
842000 1 7 2 3 6 11 0 4 5 10 8 9
843000 1 6 2 3 7 11 0 4 5 10 8 9
844000 1 6 2 3 7 11 0 4 5 10 8 9
845000 1 6 2 3 7 11 0 5 4 10 8 9
846000 1 6 2 3 7 11 0 5 4 10 8 9
847000 1 6 2 3 7 11 0 5 4 9 8 10
848000 0 6 2 3 7 11 1 5 4 9 8 10
849000 0 6 2 3 7 11 1 5 4 9 8 10
850000 0 6 2 3 7 11 1 5 4 9 8 10
851000 0 7 2 3 6 11 1 5 4 9 8 10
852000 0 7 2 3 6 11 1 5 4 9 8 10
853000 0 7 2 3 6 11 1 5 4 9 8 10
854000 0 7 2 3 6 11 1 5 4 9 8 10
855000 0 7 2 3 6 11 1 5 4 8 9 10
856000 0 7 2 3 6 11 1 5 4 9 8 10
857000 0 7 1 3 5 11 2 6 4 10 8 9
858000 0 7 1 3 5 11 2 6 4 10 8 9
859000 0 7 1 3 5 11 2 6 4 10 8 9
860000 0 7 1 3 5 11 2 6 4 10 8 9
861000 0 7 1 3 5 11 2 6 4 10 8 9
862000 0 7 1 3 5 11 2 6 4 10 8 9
863000 0 7 1 3 5 11 2 6 4 10 8 9
864000 0 7 1 3 5 11 2 6 4 10 8 9
865000 0 7 1 3 5 11 2 6 4 10 8 9
866000 0 7 1 3 5 10 2 6 4 11 8 9
867000 0 7 1 3 5 10 2 6 4 11 8 9
868000 0 7 1 3 5 10 2 6 4 11 8 9
869000 0 7 1 3 5 10 2 6 4 11 8 9
870000 0 7 1 3 5 10 2 6 4 11 8 9
871000 0 7 1 3 5 10 2 6 4 11 8 9
872000 0 7 1 4 5 10 2 6 3 11 8 9
873000 1 7 0 4 5 10 2 6 3 11 8 9
874000 1 7 0 4 5 10 2 6 3 11 8 9
875000 1 7 0 4 5 10 2 6 3 11 8 9
876000 1 7 0 4 5 10 2 6 3 11 8 9
877000 1 7 0 4 5 10 2 6 3 11 8 9
878000 1 7 0 4 5 10 2 6 3 11 9 8
879000 1 7 0 4 5 11 2 6 3 10 9 8
880000 0 7 1 4 5 11 2 6 3 10 8 9
881000 0 7 1 4 5 11 2 6 3 10 8 9
882000 0 6 1 4 5 11 2 7 3 10 9 8
883000 0 6 2 4 5 11 1 7 3 10 9 8
884000 0 6 2 4 5 11 1 7 3 10 8 9
885000 0 6 2 4 5 11 1 7 3 10 8 9
886000 0 6 2 4 5 11 1 7 3 10 8 9
887000 0 7 3 4 5 11 1 6 2 10 8 9
888000 1 7 3 4 5 11 0 6 2 10 8 9
889000 1 7 3 4 5 11 0 6 2 10 8 9
890000 1 7 3 4 5 11 0 6 2 10 8 9
891000 1 7 3 4 5 11 0 6 2 10 8 9
892000 0 7 3 4 5 11 1 6 2 10 8 9
893000 0 7 3 4 5 11 1 6 2 10 8 9
894000 0 7 3 4 5 11 1 6 2 10 8 9
895000 0 7 3 4 5 11 1 6 2 10 8 9
896000 0 7 3 4 5 11 2 6 1 10 8 9
897000 0 7 3 4 6 11 2 5 1 10 8 9
898000 0 7 3 4 6 11 2 5 1 10 8 9
899000 0 7 3 4 6 11 2 5 1 10 8 9
900000 0 7 3 4 6 11 2 5 1 10 8 9
901000 0 7 3 4 6 11 1 5 2 10 8 9
902000 0 7 3 4 6 11 1 5 2 10 8 9
903000 0 7 3 4 6 11 1 5 2 10 8 9
904000 0 8 3 4 6 11 1 5 2 10 7 9
905000 0 8 3 4 6 11 1 5 2 10 7 9
906000 0 7 3 4 6 11 1 5 2 10 8 9
907000 0 7 3 4 6 11 1 5 2 10 8 9
908000 0 7 3 4 6 11 1 5 2 10 8 9
909000 0 7 3 4 6 10 1 5 2 11 8 9
910000 0 6 3 4 7 10 1 5 2 11 8 9
911000 0 6 3 4 7 10 1 5 2 11 8 9
912000 0 6 3 4 7 10 1 5 2 11 8 9
913000 0 6 3 4 7 10 1 5 2 11 8 9
914000 0 5 3 4 7 10 1 6 2 11 8 9
915000 0 5 3 4 7 10 1 6 2 11 8 9
916000 0 5 3 4 7 10 1 6 2 11 8 9
917000 0 5 3 4 7 10 1 6 2 11 8 9
918000 0 5 3 4 6 10 1 7 2 11 8 9
919000 0 5 3 4 6 9 1 7 2 11 8 10
920000 0 5 3 4 6 9 1 7 2 11 8 10
921000 0 5 3 4 6 9 1 7 2 11 8 10
922000 0 5 3 4 6 9 1 7 2 11 8 10
923000 0 5 3 4 6 10 1 7 2 11 8 9
924000 0 5 3 4 6 10 1 7 2 11 8 9
925000 0 5 3 4 6 10 1 7 2 11 8 9
926000 0 5 3 4 6 10 1 7 2 11 8 9
927000 0 5 3 4 6 10 1 7 2 11 9 8
928000 0 5 3 4 6 10 1 7 2 11 9 8
929000 0 5 3 4 6 10 1 7 2 11 9 8
930000 0 5 3 4 6 10 1 7 2 11 9 8
931000 0 4 3 5 6 10 1 7 2 11 9 8
932000 0 4 3 5 7 10 1 6 2 11 8 9
933000 0 4 3 5 7 9 1 6 2 11 8 10
934000 0 4 3 5 7 9 1 6 2 11 8 10
935000 0 4 3 5 7 9 1 6 2 11 8 10
936000 0 4 3 6 7 9 1 5 2 11 8 10
937000 0 4 3 6 7 9 1 5 2 11 8 10
938000 0 4 3 6 7 9 1 5 2 11 8 10
939000 0 4 2 6 7 9 1 5 3 11 8 10
940000 0 4 2 6 7 10 1 5 3 11 8 9
941000 0 4 2 6 7 10 1 5 3 11 8 9
942000 0 4 2 6 7 10 1 5 3 11 8 9
943000 0 5 2 6 7 11 1 4 3 10 8 9
944000 0 5 2 6 7 11 1 4 3 10 8 9
945000 0 5 2 6 7 11 1 4 3 10 8 9
946000 0 6 2 5 7 11 1 4 3 10 8 9
947000 0 6 2 5 7 11 1 4 3 10 8 9
948000 0 6 2 5 7 11 1 4 3 10 8 9
949000 0 6 2 5 7 11 1 4 3 10 8 9
950000 0 6 2 5 7 11 1 4 3 10 8 9
951000 0 6 2 5 7 11 1 4 3 10 8 9
952000 0 6 2 5 7 11 1 4 3 10 8 9
953000 0 7 2 5 6 11 1 4 3 10 8 9
954000 0 7 2 5 6 11 1 4 3 10 8 9
955000 0 6 2 5 7 11 1 4 3 10 8 9
956000 0 5 2 6 7 11 1 3 4 10 8 9
957000 0 4 2 6 7 11 1 3 5 10 8 9
958000 0 3 2 6 7 11 1 4 5 10 8 9
959000 0 3 2 6 7 11 1 4 5 10 8 9
960000 1 3 2 6 7 11 0 4 5 10 8 9
961000 2 3 1 6 7 11 0 4 5 10 8 9
962000 2 3 1 5 7 11 0 4 6 10 8 9
963000 2 3 1 5 7 11 0 4 6 10 8 9
964000 2 3 1 5 7 11 0 4 6 10 8 9
965000 2 3 1 5 7 11 0 4 6 10 8 9
966000 2 3 1 5 7 11 0 4 6 10 8 9
967000 2 3 1 5 7 11 0 4 6 9 8 10
968000 2 3 1 5 7 11 0 4 6 9 8 10
969000 2 3 1 5 7 11 0 4 6 9 8 10
970000 2 3 1 5 7 11 0 4 6 9 8 10
971000 3 2 1 4 7 11 0 5 6 9 8 10
972000 3 2 1 4 7 11 0 6 5 10 8 9
973000 2 3 1 4 6 11 0 7 5 10 8 9
974000 2 3 1 4 6 11 0 7 5 10 8 9
975000 2 3 1 4 5 11 0 7 6 9 8 10
976000 2 3 1 4 5 11 0 7 6 9 8 10
977000 2 3 1 4 5 11 0 7 6 9 8 10
978000 2 3 1 5 4 11 0 7 6 9 8 10
979000 2 3 1 5 4 11 0 7 6 10 8 9
980000 2 3 1 5 4 11 0 6 7 10 8 9
981000 2 3 1 5 4 11 0 6 7 10 8 9
982000 2 3 1 5 4 11 0 6 7 10 8 9
983000 2 3 1 5 4 11 0 6 7 10 8 9
984000 2 3 1 6 4 11 0 5 7 10 8 9
985000 2 4 1 6 3 11 0 5 7 10 8 9
986000 2 4 1 6 3 11 0 5 7 10 8 9
987000 2 4 1 6 3 11 0 5 7 10 8 9
988000 2 4 1 6 3 11 0 5 7 9 8 10
989000 2 4 1 6 3 11 0 5 7 9 8 10
990000 3 4 0 6 2 10 1 5 7 9 8 11
991000 3 4 0 6 2 10 1 5 7 9 8 11
992000 3 4 1 7 2 10 0 5 6 9 8 11
993000 3 4 0 7 2 10 1 5 6 9 8 11
994000 3 4 0 7 2 10 1 5 6 9 8 11
995000 3 4 0 6 2 11 1 5 7 9 8 10
996000 3 4 0 6 2 11 1 5 7 9 8 10
997000 3 4 0 6 2 11 1 5 7 9 8 10
998000 3 4 0 6 2 11 1 5 7 9 8 10
999000 3 4 1 6 2 11 0 5 7 9 8 10
1000000 3 4 1 5 2 11 0 6 7 9 8 10
1001000 3 4 1 5 2 11 0 6 7 9 8 10
1002000 3 4 1 5 2 11 0 6 7 9 8 10
1003000 4 3 1 5 2 11 0 6 7 9 8 10
1004000 4 3 1 5 2 11 0 6 7 9 8 10
1005000 5 3 1 4 2 11 0 6 7 9 8 10
1006000 5 3 1 4 2 11 0 6 7 9 8 10
1007000 5 3 1 4 2 11 0 6 7 9 8 10
1008000 5 3 2 4 1 11 0 6 7 9 8 10
1009000 5 3 2 4 1 11 0 6 7 9 8 10
1010000 5 3 2 4 1 11 0 6 7 9 8 10
1011000 5 3 2 4 1 11 0 6 7 9 8 10
1012000 4 3 2 5 1 11 0 6 7 9 8 10
1013000 4 3 2 5 1 11 0 6 7 9 8 10
1014000 4 3 2 5 1 11 0 6 7 9 8 10
1015000 4 3 2 5 1 11 0 6 7 9 8 10
1016000 4 3 2 5 1 11 0 6 7 9 8 10
1017000 5 3 2 4 1 11 0 6 7 8 9 10
1018000 5 4 2 3 1 11 0 6 7 8 9 10
1019000 5 4 2 3 1 11 0 6 7 8 9 10
1020000 5 4 2 3 1 11 0 6 7 8 9 10
1021000 4 5 2 3 0 11 1 6 7 8 9 10
1022000 4 5 2 3 0 11 1 6 7 8 9 10
1023000 4 5 2 3 0 11 1 6 7 8 9 10
1024000 4 5 2 3 0 11 1 6 7 8 9 10
1025000 4 5 2 3 0 11 1 6 7 8 9 10
1026000 3 5 2 4 0 11 1 6 7 8 9 10
1027000 3 5 2 4 0 11 1 6 7 9 8 10
1028000 4 5 2 3 0 11 1 6 7 9 8 10
1029000 4 5 2 3 0 11 1 6 7 9 8 10
1030000 3 5 2 4 0 11 1 6 7 9 8 10
1031000 3 5 2 4 0 11 1 6 7 9 8 10
1032000 3 5 2 4 0 11 1 6 7 9 8 10
1033000 3 5 2 4 0 11 1 6 7 9 8 10
1034000 3 5 2 4 0 11 1 6 7 9 8 10
1035000 3 5 2 4 0 11 1 6 7 9 8 10
1036000 3 4 2 5 1 11 0 6 7 9 8 10
1037000 3 4 2 5 1 11 0 7 6 9 8 10
1038000 3 4 2 5 1 11 0 7 6 9 8 10
1039000 3 4 1 5 2 11 0 7 6 9 8 10
1040000 3 4 1 5 2 11 0 7 6 9 8 10
1041000 3 4 0 5 2 11 1 7 6 9 8 10
1042000 2 4 0 5 3 11 1 7 6 9 8 10
1043000 2 3 0 5 4 11 1 7 6 9 8 10
1044000 2 3 0 5 4 11 1 7 6 9 8 10
1045000 2 3 0 5 4 11 1 7 6 10 8 9
1046000 2 3 0 5 4 11 1 7 6 10 8 9
1047000 2 4 0 5 3 11 1 7 6 10 8 9
1048000 2 3 0 5 4 11 1 7 6 9 8 10
1049000 2 3 0 5 4 11 1 7 6 9 8 10
1050000 2 3 0 5 4 11 1 7 6 9 8 10
1051000 2 3 0 4 5 11 1 7 6 8 9 10
1052000 2 3 1 4 5 11 0 7 6 8 9 10
1053000 2 3 1 4 5 11 0 7 6 8 9 10
1054000 2 4 1 3 5 11 0 7 6 8 9 10
1055000 2 4 1 3 5 11 0 7 6 8 9 10
1056000 2 3 1 4 5 11 0 7 6 8 10 9
1057000 2 3 1 4 5 11 0 6 7 8 10 9
1058000 2 3 1 4 5 11 0 6 7 8 10 9
1059000 1 3 2 4 5 11 0 6 7 8 10 9
1060000 2 3 1 4 5 11 0 6 7 8 10 9
1061000 2 3 1 4 5 11 0 6 7 8 10 9
1062000 2 3 1 4 5 11 0 6 7 8 10 9
1063000 2 3 1 4 5 11 0 6 7 8 10 9
1064000 2 3 1 4 5 11 0 6 7 8 10 9
1065000 2 3 1 4 5 11 0 6 7 8 10 9
1066000 2 3 1 4 5 11 0 6 7 8 10 9
1067000 2 3 0 4 5 11 1 6 7 8 10 9
1068000 2 3 0 4 5 11 1 6 7 8 10 9
1069000 2 3 1 5 4 11 0 6 7 8 10 9
1070000 2 3 0 5 4 11 1 6 7 8 10 9
1071000 2 3 0 5 4 11 1 6 7 8 10 9
1072000 2 3 0 4 5 11 1 6 7 9 10 8
1073000 2 3 0 4 5 11 1 6 7 9 10 8
1074000 2 3 0 4 6 11 1 5 7 9 10 8
1075000 2 3 0 4 6 11 1 5 7 9 10 8
1076000 2 3 0 4 6 11 1 5 7 8 10 9
1077000 2 3 0 4 5 11 1 6 7 8 10 9
1078000 1 3 0 4 5 11 2 6 7 8 10 9
1079000 1 3 0 4 5 11 2 6 7 8 10 9
1080000 1 3 0 4 5 11 2 6 7 8 10 9
1081000 1 3 0 4 5 11 2 6 7 8 10 9
1082000 1 3 0 4 5 11 2 6 7 8 10 9
1083000 1 3 0 4 5 11 2 6 7 8 10 9
1084000 1 3 0 4 6 11 2 5 7 8 10 9
1085000 1 3 0 4 6 11 2 5 7 8 10 9
1086000 1 3 0 4 6 11 2 5 7 8 10 9
1087000 1 3 0 4 6 11 2 5 7 8 10 9
1088000 2 4 0 3 6 11 1 5 7 8 10 9
1089000 2 4 0 3 6 11 1 5 7 8 10 9
1090000 2 5 1 3 6 11 0 4 7 8 10 9
1091000 2 5 1 3 6 11 0 4 7 8 10 9
1092000 2 5 1 3 6 11 0 4 7 8 10 9
1093000 2 5 1 3 6 11 0 4 7 8 10 9
1094000 2 5 0 3 6 11 1 4 7 8 10 9
1095000 2 5 0 3 6 11 1 4 7 8 10 9
1096000 2 5 0 3 6 11 1 4 7 8 10 9
1097000 1 5 0 3 6 11 2 4 7 8 10 9
1098000 1 5 0 3 6 11 2 4 7 8 10 9
1099000 1 5 0 3 6 11 2 4 7 8 10 9
1100000 0 4 1 3 6 11 2 5 7 8 10 9
1101000 0 4 1 3 6 11 2 5 7 8 10 9
1102000 0 4 1 3 5 11 2 6 7 8 10 9
1103000 0 4 1 3 6 11 2 5 7 8 9 10
1104000 0 4 1 3 6 11 2 5 7 8 9 10
1105000 0 5 1 3 6 11 2 4 7 9 8 10
1106000 0 5 1 3 6 11 2 4 7 9 8 10
1107000 0 4 1 3 6 11 2 5 7 9 8 10
1108000 1 4 0 3 6 11 2 5 7 8 9 10
1109000 1 4 0 3 6 11 2 5 7 8 9 10
1110000 1 4 0 3 6 11 2 5 7 8 9 10
1111000 1 4 0 3 5 11 2 6 7 8 10 9
1112000 1 5 0 3 4 11 2 6 7 9 10 8
1113000 1 5 0 3 4 11 2 6 7 9 10 8
1114000 1 5 0 3 4 11 2 6 7 9 10 8
1115000 1 5 0 3 4 11 2 6 7 9 10 8
1116000 1 5 0 3 4 11 2 6 7 9 10 8
1117000 2 6 0 3 4 11 1 5 7 9 10 8
1118000 2 6 0 3 4 11 1 5 7 9 10 8
1119000 2 6 0 3 4 11 1 5 7 9 10 8
1120000 2 6 0 3 4 11 1 5 7 8 10 9
1121000 2 5 0 3 4 11 1 6 7 8 10 9
1122000 2 5 0 3 4 11 1 6 7 8 10 9
1123000 2 4 0 3 5 11 1 6 7 8 10 9
1124000 2 3 0 4 5 11 1 6 7 8 10 9
1125000 2 3 0 4 5 11 1 6 7 8 9 10
1126000 2 3 0 4 5 11 1 6 7 8 10 9
1127000 2 3 0 4 5 11 1 6 7 8 10 9
1128000 2 3 0 4 5 11 1 6 7 8 10 9
1129000 2 3 0 4 5 11 1 6 7 8 10 9
1130000 2 3 0 4 5 11 1 6 7 8 10 9
1131000 2 3 0 4 5 11 1 6 7 8 10 9
1132000 2 3 0 4 5 11 1 6 7 8 10 9
1133000 2 3 0 4 5 11 1 6 7 9 10 8
1134000 2 4 0 3 5 11 1 6 7 10 9 8
1135000 2 4 0 3 5 11 1 6 7 10 9 8
1136000 2 4 0 3 5 11 1 6 7 10 9 8
1137000 2 4 0 3 5 11 1 6 7 9 10 8
1138000 2 4 0 3 5 11 1 6 7 9 10 8
1139000 3 4 0 2 5 11 1 6 7 9 10 8
1140000 3 4 0 2 5 11 1 6 7 9 10 8
1141000 3 4 0 2 5 11 1 6 7 9 10 8
1142000 3 4 0 2 5 11 1 6 7 10 9 8
1143000 3 4 0 2 5 11 1 6 7 10 9 8
1144000 3 4 0 1 5 11 2 6 7 9 10 8
1145000 3 4 0 1 5 11 2 6 7 9 10 8
1146000 3 4 0 1 5 11 2 6 7 9 10 8
1147000 3 4 0 1 5 11 2 6 7 9 10 8
1148000 3 4 0 1 5 11 2 7 6 9 10 8
1149000 3 4 0 1 5 11 2 7 6 9 10 8
1150000 3 4 0 1 5 11 2 7 6 9 10 8
1151000 3 4 0 1 5 11 2 7 6 9 10 8
1152000 3 4 0 1 5 11 2 7 6 9 10 8
1153000 3 4 0 1 5 11 2 7 6 9 10 8
1154000 3 4 0 2 6 11 1 7 5 9 10 8
1155000 3 4 0 2 7 11 1 6 5 9 10 8
1156000 3 4 0 2 7 11 1 6 5 9 10 8
1157000 3 4 0 2 7 11 1 6 5 9 10 8
1158000 3 4 0 2 7 11 1 6 5 9 10 8
1159000 4 3 0 2 7 11 1 5 6 9 10 8
1160000 4 3 0 2 7 11 1 5 6 9 10 8
1161000 4 3 0 2 7 11 1 5 6 9 10 8
1162000 4 3 0 2 7 11 1 6 5 9 10 8
1163000 4 3 0 2 7 11 1 6 5 9 10 8
1164000 4 2 0 3 7 10 1 6 5 9 11 8
1165000 4 2 0 3 7 10 1 6 5 9 11 8
1166000 5 2 1 3 7 10 0 6 4 9 11 8
1167000 6 2 1 3 7 10 0 5 4 9 11 8
1168000 6 2 1 3 7 10 0 5 4 9 11 8
1169000 6 2 1 3 7 9 0 5 4 10 11 8
1170000 5 2 1 3 7 10 0 6 4 9 11 8
1171000 5 2 1 3 7 10 0 6 4 9 11 8
1172000 5 2 1 3 7 10 0 6 4 9 11 8
1173000 5 2 1 3 6 10 0 7 4 9 11 8
1174000 5 2 1 3 6 10 0 7 4 9 11 8
1175000 5 2 1 3 6 10 0 7 4 9 11 8
1176000 5 2 1 3 6 10 0 7 4 9 11 8
1177000 5 2 1 3 6 10 0 7 4 9 11 8
1178000 5 3 1 2 6 10 0 7 4 9 11 8
1179000 5 3 1 2 6 10 0 7 4 9 11 8
1180000 5 3 1 2 6 10 0 7 4 9 11 8
1181000 5 3 0 2 6 10 1 7 4 9 11 8
1182000 5 3 0 2 6 10 1 7 4 9 11 8
1183000 5 3 0 2 7 10 1 6 4 9 11 8
1184000 5 3 0 2 7 9 1 6 4 10 11 8
1185000 5 3 0 2 7 9 1 6 4 10 11 8
1186000 5 3 0 2 7 9 1 6 4 10 11 8
1187000 5 3 0 2 7 9 1 6 4 10 11 8
1188000 5 3 0 2 7 9 1 6 4 10 11 8
1189000 5 3 0 2 7 9 1 6 4 10 11 8
1190000 4 3 0 2 7 9 1 6 5 10 11 8
1191000 4 3 0 2 7 9 1 6 5 10 11 8
1192000 4 3 0 2 7 9 1 6 5 10 11 8
1193000 4 3 0 2 7 8 1 6 5 10 11 9
1194000 4 3 0 1 7 8 2 6 5 10 11 9
1195000 5 3 0 1 7 8 2 6 4 10 11 9
1196000 5 3 0 1 6 8 2 7 4 10 11 9
1197000 6 3 0 1 5 8 2 7 4 9 11 10
1198000 6 3 0 1 5 8 2 7 4 9 11 10
1199000 6 3 0 1 5 8 2 7 4 9 11 10
1200000 6 4 0 1 5 8 2 7 3 9 11 10
1201000 5 4 0 1 6 8 2 7 3 9 11 10
1202000 5 4 0 1 6 9 2 7 3 8 11 10
1203000 5 4 0 1 6 9 2 7 3 8 11 10
1204000 5 4 0 1 6 9 2 7 3 8 11 10
1205000 5 4 0 1 6 9 3 7 2 8 11 10
1206000 5 4 0 1 6 9 3 7 2 8 11 10
1207000 5 4 0 1 6 10 3 7 2 8 11 9
1208000 5 3 0 1 6 10 4 7 2 8 11 9
1209000 5 3 0 1 6 10 4 7 2 8 11 9
1210000 5 3 0 2 6 10 4 7 1 8 11 9
1211000 5 3 0 2 7 10 4 6 1 8 11 9
1212000 4 3 0 2 7 10 5 6 1 8 11 9
1213000 4 3 0 2 6 10 5 7 1 8 11 9
1214000 4 3 0 2 6 10 5 7 1 8 11 9
1215000 4 3 0 2 6 10 5 7 1 8 11 9
1216000 4 3 0 2 6 10 5 7 1 8 11 9
1217000 4 3 0 1 6 10 5 7 2 8 11 9
1218000 4 3 0 1 6 10 5 7 2 8 11 9
1219000 4 3 0 1 6 10 5 7 2 8 11 9
1220000 4 3 0 1 6 9 5 7 2 8 11 10
1221000 4 3 0 1 6 9 5 7 2 8 11 10
1222000 4 3 0 1 5 9 6 7 2 8 11 10
1223000 4 3 0 1 5 9 6 7 2 8 11 10
1224000 5 3 1 0 4 9 6 7 2 8 11 10
1225000 5 3 1 0 4 9 6 7 2 8 11 10
1226000 5 3 1 0 4 9 6 7 2 8 11 10
1227000 5 3 1 0 4 9 6 7 2 8 11 10
1228000 5 3 1 0 4 9 6 7 2 8 11 10
1229000 5 4 1 0 3 9 6 7 2 8 11 10
1230000 5 4 1 0 3 8 6 7 2 9 11 10
1231000 5 4 1 0 3 8 6 7 2 9 11 10
1232000 5 4 1 0 3 8 6 7 2 9 11 10
1233000 4 5 1 0 3 8 6 7 2 9 10 11
1234000 4 5 0 1 3 8 6 7 2 9 10 11
1235000 4 5 0 1 3 8 6 7 2 9 10 11
1236000 4 5 0 1 3 8 6 7 2 9 10 11
1237000 4 5 0 1 3 8 6 7 2 9 10 11
1238000 4 5 0 1 3 8 6 7 2 10 9 11
1239000 4 5 0 1 3 9 6 7 2 10 8 11
1240000 4 5 0 1 3 9 6 7 2 11 8 10
1241000 4 5 0 1 3 8 6 7 2 10 9 11
1242000 4 5 0 1 3 8 6 7 2 9 10 11
1243000 4 5 1 0 3 8 6 7 2 9 11 10
1244000 4 5 1 0 3 8 6 7 2 9 11 10
1245000 4 5 1 0 3 8 6 7 2 9 11 10
1246000 4 5 1 0 3 8 6 7 2 9 11 10
1247000 4 5 1 0 3 8 6 7 2 9 11 10
1248000 4 5 1 0 3 8 6 7 2 9 11 10
1249000 4 6 1 0 3 8 5 7 2 9 11 10
1250000 4 6 2 0 3 8 5 7 1 10 11 9
1251000 4 6 2 0 3 8 5 7 1 10 11 9
1252000 4 6 1 0 3 8 5 7 2 10 11 9
1253000 4 6 1 0 3 8 5 7 2 9 11 10
1254000 4 6 1 0 3 8 5 7 2 9 10 11
1255000 3 6 1 0 4 8 5 7 2 9 10 11
1256000 3 6 1 0 4 8 5 7 2 9 10 11
1257000 3 7 1 0 4 8 5 6 2 9 10 11
1258000 3 7 1 0 4 8 6 5 2 10 9 11
1259000 3 7 0 1 4 8 6 5 2 10 9 11
1260000 3 7 0 1 4 8 6 5 2 9 10 11
1261000 3 7 0 1 4 8 6 5 2 9 10 11
1262000 3 7 0 1 4 9 6 5 2 8 10 11
1263000 3 7 0 2 4 9 6 5 1 8 10 11
1264000 3 7 0 2 4 8 6 5 1 9 11 10
1265000 3 7 0 2 4 8 6 5 1 9 11 10
1266000 3 7 0 2 4 8 6 5 1 9 11 10
1267000 3 7 0 2 4 8 6 5 1 9 11 10
1268000 3 7 0 2 4 8 6 5 1 9 11 10
1269000 3 7 0 2 4 8 6 5 1 10 11 9
1270000 3 7 0 2 4 8 6 5 1 10 11 9
1271000 3 7 0 2 4 8 6 5 1 10 11 9
1272000 3 7 0 2 4 8 6 5 1 10 11 9
1273000 3 7 0 2 4 8 6 5 1 9 11 10
1274000 3 7 0 2 4 8 6 5 1 9 11 10
1275000 3 7 0 2 4 8 6 5 1 9 11 10
1276000 3 7 0 1 4 8 6 5 2 9 11 10
1277000 2 7 0 1 4 8 6 5 3 9 11 10
1278000 2 7 0 1 4 8 6 5 3 9 11 10
1279000 2 7 0 1 4 8 6 5 3 9 11 10
1280000 2 6 0 1 4 8 7 5 3 9 11 10
1281000 3 6 0 1 5 8 7 4 2 9 11 10
1282000 3 6 0 1 5 8 7 4 2 9 11 10
1283000 3 6 0 1 5 8 7 4 2 9 11 10
1284000 3 6 0 1 5 8 7 4 2 9 11 10
1285000 3 6 0 1 5 8 7 4 2 9 11 10
1286000 3 5 0 1 6 8 7 4 2 9 11 10
1287000 3 5 0 1 6 8 7 4 2 9 11 10
1288000 3 5 0 1 6 8 7 4 2 9 11 10
1289000 3 5 1 0 6 8 7 4 2 9 11 10
1290000 3 5 1 0 6 8 7 4 2 9 11 10
1291000 3 5 1 0 6 8 7 4 2 9 11 10
1292000 3 5 1 0 6 8 7 4 2 9 11 10
1293000 3 5 0 1 6 8 7 4 2 9 11 10
1294000 3 5 0 1 6 8 7 4 2 9 11 10
1295000 3 4 1 0 6 8 7 5 2 9 11 10
1296000 3 4 1 0 6 8 7 5 2 9 11 10
1297000 3 4 1 0 6 9 7 5 2 8 10 11
1298000 3 4 0 1 6 8 7 5 2 9 11 10
1299000 3 4 0 1 6 8 7 5 2 10 11 9
1300000 3 4 0 1 6 8 7 5 2 9 11 10
1301000 3 4 1 0 6 8 7 5 2 9 11 10
1302000 3 4 1 0 6 8 7 5 2 9 11 10
1303000 3 4 0 1 6 9 7 5 2 8 11 10
1304000 3 4 0 1 6 9 7 5 2 8 11 10
1305000 3 4 0 1 6 8 7 5 2 9 11 10
1306000 3 4 0 1 6 8 7 5 2 9 11 10
1307000 3 4 0 1 6 8 7 5 2 9 11 10
1308000 3 4 0 1 5 8 7 6 2 9 11 10
1309000 4 3 0 2 5 8 7 6 1 9 11 10
1310000 4 3 0 2 5 8 7 6 1 9 11 10
1311000 4 3 0 2 5 8 7 6 1 9 11 10
1312000 4 3 0 2 5 8 7 6 1 9 11 10
1313000 4 3 0 2 5 8 7 6 1 10 11 9
1314000 4 3 0 2 5 8 7 6 1 10 11 9
1315000 4 3 0 2 5 8 7 6 1 9 11 10
1316000 4 3 0 2 5 8 7 6 1 9 11 10
1317000 4 3 0 1 5 8 7 6 2 10 11 9
1318000 4 3 0 1 5 8 7 6 2 10 11 9
1319000 4 3 0 2 5 8 7 6 1 10 11 9
1320000 4 3 0 2 5 8 7 6 1 10 11 9
1321000 4 3 0 2 5 8 7 6 1 10 11 9
1322000 4 3 0 2 5 8 7 6 1 9 11 10
1323000 4 3 0 2 5 9 7 6 1 8 11 10
1324000 4 3 0 2 5 8 7 6 1 9 11 10
1325000 3 4 0 2 5 8 7 6 1 9 11 10
1326000 3 4 0 2 5 8 7 6 1 9 11 10
1327000 3 4 0 2 5 8 7 6 1 9 11 10
1328000 3 4 1 2 5 8 6 7 0 9 11 10
1329000 3 4 1 2 6 8 5 7 0 10 11 9
1330000 3 4 0 2 6 8 5 7 1 10 11 9
1331000 3 4 0 2 6 8 5 7 1 10 11 9
1332000 3 4 1 2 6 8 5 7 0 10 11 9
1333000 3 4 2 1 6 8 5 7 0 10 11 9
1334000 3 4 2 1 6 8 5 7 0 10 11 9
1335000 3 4 2 0 6 9 5 7 1 10 11 8
1336000 3 4 2 0 6 9 5 7 1 10 11 8
1337000 3 4 2 0 6 10 5 7 1 9 11 8
1338000 3 4 2 0 6 10 5 7 1 9 11 8
1339000 3 4 2 0 6 9 5 7 1 10 11 8
1340000 3 4 2 0 6 9 5 7 1 10 11 8
1341000 3 4 2 0 7 9 5 6 1 10 11 8
1342000 3 4 2 0 7 9 5 6 1 10 11 8
1343000 3 4 2 0 7 9 5 6 1 10 11 8
1344000 3 4 2 0 7 9 5 6 1 10 11 8
1345000 2 4 3 0 7 9 5 6 1 10 11 8
1346000 2 4 3 0 7 9 5 6 1 10 11 8
1347000 2 4 3 0 7 9 5 6 1 10 11 8
1348000 2 4 3 0 7 9 5 6 1 10 11 8
1349000 2 4 3 0 7 10 6 5 1 9 11 8
1350000 2 4 3 0 7 9 6 5 1 10 11 8
1351000 2 4 3 0 7 9 5 6 1 10 11 8
1352000 2 4 3 0 7 9 5 6 1 10 11 8
1353000 2 4 3 0 7 10 5 6 1 9 11 8
1354000 2 4 3 1 7 10 5 6 0 9 11 8
1355000 2 4 3 1 7 10 5 6 0 8 11 9
1356000 1 4 3 2 7 10 5 6 0 8 11 9
1357000 1 4 3 2 7 9 5 6 0 8 11 10
1358000 1 5 3 2 7 8 4 6 0 9 11 10
1359000 1 5 2 3 7 8 4 6 0 9 11 10
1360000 1 6 2 3 7 8 4 5 0 9 11 10
1361000 1 6 2 3 7 8 4 5 0 9 11 10
1362000 1 5 2 3 7 8 4 6 0 10 11 9
1363000 2 5 1 3 7 8 4 6 0 9 11 10
1364000 2 5 1 3 7 9 4 6 0 8 11 10
1365000 2 6 1 3 7 9 4 5 0 8 11 10
1366000 2 6 1 3 7 9 4 5 0 8 11 10
1367000 2 6 0 3 7 9 4 5 1 8 11 10
1368000 2 6 0 3 7 9 4 5 1 8 11 10
1369000 2 6 0 3 7 9 4 5 1 8 11 10
1370000 2 6 0 3 7 9 4 5 1 8 11 10
1371000 3 7 0 2 6 9 4 5 1 8 11 10
1372000 3 7 0 2 6 9 4 5 1 8 11 10
1373000 3 7 0 2 6 9 4 5 1 8 11 10
1374000 3 7 0 2 6 9 4 5 1 8 11 10
1375000 3 6 0 2 7 9 4 5 1 8 11 10
1376000 3 6 0 2 7 9 4 5 1 8 11 10
1377000 3 6 0 2 7 9 4 5 1 8 11 10
1378000 3 6 0 2 7 10 4 5 1 8 11 9
1379000 3 6 0 2 7 10 4 5 1 8 11 9
1380000 3 6 0 2 7 10 4 5 1 9 11 8
1381000 3 6 0 2 7 10 4 5 1 9 11 8
1382000 3 6 0 2 7 10 4 5 1 9 11 8
1383000 3 5 0 1 7 10 4 6 2 9 11 8
1384000 3 5 0 1 7 10 4 6 2 9 11 8
1385000 3 5 0 1 7 10 4 6 2 9 11 8
1386000 3 5 0 1 7 10 4 6 2 9 11 8
1387000 3 5 0 1 7 10 4 6 2 9 11 8
1388000 3 5 0 1 7 10 4 6 2 9 11 8
1389000 4 5 0 1 7 10 3 6 2 9 11 8
1390000 5 4 0 1 7 10 3 6 2 9 11 8
1391000 5 4 0 1 7 10 3 6 2 9 11 8
1392000 5 4 0 1 7 11 3 6 2 9 10 8
1393000 5 4 0 1 7 11 3 6 2 9 10 8
1394000 4 5 0 1 7 11 3 6 2 9 10 8
1395000 4 5 0 1 7 11 3 6 2 9 10 8
1396000 4 5 0 1 7 11 3 6 2 9 10 8
1397000 4 6 0 2 7 11 3 5 1 9 10 8
1398000 4 6 0 2 7 11 3 5 1 9 10 8
1399000 5 6 0 2 7 11 3 4 1 8 10 9
1400000 5 6 1 2 7 11 3 4 0 8 10 9
1401000 5 6 1 3 7 11 2 4 0 8 10 9
1402000 5 6 1 3 7 11 2 4 0 8 10 9
1403000 5 6 1 2 7 11 3 4 0 9 10 8
1404000 5 6 1 2 7 11 3 4 0 9 10 8
1405000 5 6 1 2 7 11 4 3 0 9 10 8
1406000 5 6 1 2 7 11 4 3 0 9 10 8
1407000 5 6 1 2 7 11 4 3 0 9 10 8
1408000 5 6 1 2 7 11 3 4 0 9 10 8
1409000 5 6 1 2 7 11 3 4 0 8 10 9
1410000 5 6 1 2 7 10 3 4 0 8 11 9
1411000 5 6 1 2 7 10 3 4 0 8 11 9
1412000 4 6 1 2 7 10 3 5 0 8 11 9
1413000 4 6 1 2 7 10 3 5 0 8 11 9
1414000 4 6 1 2 7 10 3 5 0 8 11 9
1415000 4 6 1 2 7 10 3 5 0 8 11 9
1416000 4 6 1 2 7 10 3 5 0 8 11 9
1417000 4 6 1 2 7 10 3 5 0 8 11 9
1418000 4 6 1 2 7 10 3 5 0 8 11 9
1419000 4 6 1 2 7 10 3 5 0 8 11 9
1420000 4 6 1 2 7 10 3 5 0 8 11 9
1421000 4 6 1 3 7 10 2 5 0 8 11 9
1422000 5 6 0 3 7 10 2 4 1 9 11 8
1423000 5 6 0 3 7 10 2 4 1 9 11 8
1424000 5 6 0 4 7 10 2 3 1 9 11 8
1425000 5 6 0 4 7 10 2 3 1 9 11 8
1426000 5 6 0 4 7 10 2 3 1 9 11 8
1427000 5 6 0 4 7 10 2 3 1 9 11 8
1428000 5 6 0 4 7 10 2 3 1 9 11 8
1429000 6 5 0 4 7 10 2 3 1 9 11 8
1430000 6 5 1 4 7 10 2 3 0 9 11 8
1431000 6 5 1 4 7 10 2 3 0 8 11 9
1432000 6 5 1 4 7 10 2 3 0 8 11 9
1433000 6 5 1 3 7 10 2 4 0 8 11 9
1434000 6 5 1 3 7 10 2 4 0 8 11 9
1435000 6 5 1 3 7 10 2 4 0 8 11 9
1436000 6 5 1 3 7 10 2 4 0 8 11 9
1437000 5 6 1 3 7 10 2 4 0 8 11 9
1438000 5 6 1 3 7 10 2 4 0 8 11 9
1439000 5 6 1 3 7 10 2 4 0 8 11 9
1440000 5 7 1 3 6 10 2 4 0 8 11 9
1441000 5 7 1 3 6 10 2 4 0 8 11 9
1442000 5 7 1 3 6 10 2 4 0 8 11 9
1443000 5 7 1 3 6 10 2 4 0 8 11 9
1444000 5 7 1 3 6 10 2 4 0 8 11 9
1445000 5 7 1 3 6 11 2 4 0 8 10 9
1446000 5 7 1 3 6 11 2 4 0 8 10 9
1447000 5 7 1 3 6 11 2 4 0 8 9 10
1448000 4 7 1 3 6 11 2 5 0 8 9 10
1449000 4 7 1 3 6 11 2 5 0 9 8 10
1450000 4 7 1 3 6 11 2 5 0 9 8 10
1451000 4 7 2 3 6 11 1 5 0 9 8 10
1452000 4 7 3 2 6 11 1 5 0 9 8 10
1453000 4 7 3 2 5 11 1 6 0 9 8 10
1454000 4 7 3 2 5 11 1 6 0 9 8 10
1455000 4 7 3 2 5 11 1 6 0 8 9 10
1456000 4 7 3 2 5 11 1 6 0 8 9 10
1457000 4 7 3 2 5 11 1 6 0 8 9 10
1458000 3 7 4 2 6 11 1 5 0 8 9 10
1459000 2 7 4 3 6 11 1 5 0 8 9 10
1460000 1 7 4 3 6 11 2 5 0 8 10 9
1461000 1 7 4 3 6 11 2 5 0 8 10 9
1462000 1 7 4 3 6 11 2 5 0 8 10 9
1463000 1 7 4 3 6 11 2 5 0 8 10 9
1464000 1 7 4 3 6 11 2 5 0 8 10 9
1465000 1 7 4 3 6 11 2 5 0 8 10 9
1466000 1 7 4 3 6 11 2 5 0 8 10 9
1467000 1 7 4 3 6 11 2 5 0 8 10 9
1468000 1 7 4 3 5 11 2 6 0 8 9 10
1469000 1 7 4 3 5 11 2 6 0 8 9 10
1470000 1 7 4 3 5 11 2 6 0 8 9 10
1471000 1 7 4 3 5 11 2 6 0 8 9 10
1472000 1 7 4 3 5 11 2 6 0 8 9 10
1473000 1 7 4 3 5 11 2 6 0 8 9 10
1474000 1 7 4 3 5 11 2 6 0 8 9 10
1475000 1 7 4 3 6 11 2 5 0 8 9 10
1476000 1 7 4 3 5 11 2 6 0 8 9 10
1477000 1 7 4 3 5 11 2 6 0 8 9 10
1478000 1 7 4 3 6 11 2 5 0 8 9 10
1479000 1 7 4 3 6 11 2 5 0 8 9 10
1480000 1 7 4 3 6 11 2 5 0 8 9 10
1481000 1 7 4 3 6 11 2 5 0 8 9 10
1482000 1 7 4 3 6 11 2 5 0 8 9 10
1483000 1 7 4 3 6 11 2 5 0 8 9 10
1484000 0 7 5 3 6 11 2 4 1 9 8 10
1485000 0 7 5 3 6 11 2 4 1 9 8 10
1486000 0 7 5 3 6 11 2 4 1 9 8 10
1487000 0 7 5 3 6 11 2 4 1 9 8 10
1488000 0 7 5 3 6 11 2 4 1 9 8 10
1489000 0 7 5 3 6 11 2 4 1 9 8 10
1490000 0 7 5 3 6 11 2 4 1 8 9 10
1491000 0 7 5 2 6 11 3 4 1 8 9 10
1492000 0 7 5 2 6 11 3 4 1 9 8 10
1493000 1 7 5 2 6 11 3 4 0 9 8 10
1494000 1 7 5 2 6 11 3 4 0 9 8 10
1495000 1 7 5 2 6 11 3 4 0 9 8 10
1496000 1 7 5 2 6 11 3 4 0 9 8 10
1497000 1 7 5 2 6 11 4 3 0 9 8 10
1498000 1 7 5 2 6 11 4 3 0 8 9 10
1499000 1 7 5 2 6 11 4 3 0 8 9 10
1500000 1 7 5 2 6 11 4 3 0 8 9 10
1501000 1 7 5 2 6 11 4 3 0 8 9 10
1502000 1 7 6 2 5 11 4 3 0 8 9 10
1503000 1 7 6 2 5 11 4 3 0 8 9 10
1504000 1 7 6 3 5 11 4 2 0 8 9 10
1505000 1 7 6 3 5 11 4 2 0 8 9 10
1506000 1 7 6 3 5 11 4 2 0 8 9 10
1507000 0 7 6 3 5 11 4 2 1 8 9 10
1508000 0 7 6 4 5 11 3 2 1 8 9 10
1509000 0 7 6 4 5 11 3 2 1 8 9 10
1510000 0 7 6 4 5 11 3 2 1 8 9 10
1511000 0 7 6 4 5 11 3 2 1 8 10 9
1512000 0 7 6 4 5 11 3 2 1 8 10 9
1513000 0 7 6 4 5 11 3 2 1 8 9 10
1514000 1 7 6 4 5 11 3 2 0 8 9 10
1515000 1 7 6 4 5 11 3 2 0 8 9 10
1516000 0 7 6 4 5 11 3 2 1 8 9 10
1517000 0 7 6 4 5 11 3 2 1 8 10 9
1518000 0 7 6 4 5 11 3 2 1 8 10 9
1519000 0 7 6 4 5 11 3 2 1 8 10 9
1520000 0 7 6 4 5 10 3 2 1 8 11 9
1521000 0 7 6 4 5 9 3 2 1 8 11 10
1522000 0 7 6 4 5 9 3 1 2 8 11 10
1523000 0 7 6 4 5 9 3 1 2 8 11 10
1524000 1 7 6 4 5 9 3 0 2 8 11 10
1525000 1 7 6 4 5 9 3 0 2 8 11 10
1526000 1 7 6 4 5 9 3 0 2 8 11 10
1527000 1 7 6 4 5 9 3 0 2 8 11 10
1528000 1 7 6 4 5 9 3 0 2 8 11 10
1529000 1 7 6 4 5 9 3 0 2 8 10 11
1530000 1 7 6 4 5 8 3 0 2 9 10 11
1531000 1 6 7 4 5 9 3 0 2 8 10 11
1532000 1 6 7 4 5 9 3 0 2 8 10 11
1533000 1 6 7 4 5 9 3 0 2 8 10 11
1534000 1 6 7 4 5 9 3 0 2 8 10 11
1535000 1 7 6 4 5 9 3 0 2 8 10 11
1536000 1 7 5 4 6 9 3 0 2 8 10 11
1537000 1 7 5 4 6 9 3 0 2 8 10 11
1538000 1 6 5 4 7 9 3 0 2 8 10 11
1539000 1 6 5 4 7 9 3 0 2 8 10 11
1540000 1 6 5 4 7 9 3 0 2 8 10 11
1541000 1 5 6 3 7 9 4 0 2 8 10 11
1542000 1 5 6 3 7 9 4 0 2 8 10 11
1543000 0 5 6 3 7 9 4 1 2 8 10 11
1544000 0 6 5 3 7 10 4 1 2 8 9 11
1545000 0 6 5 3 7 9 4 1 2 8 10 11
1546000 0 6 5 2 7 9 4 1 3 8 10 11
1547000 0 6 5 2 7 8 4 1 3 9 10 11
1548000 0 6 5 2 7 8 3 1 4 9 10 11
1549000 0 6 5 2 7 8 3 1 4 9 10 11
1550000 0 6 5 2 7 9 3 1 4 8 10 11
1551000 0 6 5 2 7 9 3 1 4 8 10 11
1552000 1 6 5 2 7 9 3 0 4 8 10 11
1553000 1 6 5 2 7 9 3 0 4 8 10 11
1554000 1 5 6 2 7 9 3 0 4 8 10 11
1555000 1 5 6 2 7 9 3 0 4 8 10 11
1556000 1 5 7 2 6 9 3 0 4 8 10 11
1557000 1 5 7 2 6 10 3 0 4 8 9 11
1558000 1 5 7 2 6 10 4 0 3 8 9 11
1559000 1 5 7 2 6 10 4 0 3 8 9 11
1560000 1 5 7 2 6 11 4 0 3 8 9 10
1561000 1 5 7 2 6 11 4 0 3 9 8 10
1562000 1 5 7 2 6 11 4 0 3 9 8 10
1563000 2 5 7 1 6 11 4 0 3 9 8 10
1564000 2 6 7 1 5 11 4 0 3 9 8 10
1565000 2 6 7 1 5 11 4 0 3 9 8 10
1566000 2 6 7 1 5 11 3 0 4 10 8 9
1567000 2 6 7 0 5 11 3 1 4 10 8 9
1568000 2 6 7 0 5 11 3 1 4 10 8 9
1569000 2 6 7 0 5 11 3 1 4 10 8 9
1570000 2 6 7 0 5 11 3 1 4 10 8 9
1571000 2 6 7 0 5 11 3 1 4 10 8 9
1572000 2 6 7 1 5 11 3 0 4 10 8 9
1573000 2 6 7 1 5 11 3 0 4 10 8 9
1574000 2 6 7 1 5 11 3 0 4 10 8 9
1575000 2 6 7 1 5 11 3 0 4 9 8 10
1576000 2 5 7 1 6 11 3 0 4 9 8 10
1577000 3 5 7 1 6 11 2 0 4 9 8 10
1578000 3 5 7 1 6 11 2 0 4 9 8 10
1579000 3 6 7 1 5 11 2 0 4 9 8 10
1580000 3 6 7 2 5 11 1 0 4 9 8 10
1581000 3 6 7 2 5 11 1 0 4 9 8 10
1582000 3 6 7 1 5 11 2 0 4 9 8 10
1583000 3 6 7 1 5 11 2 0 4 9 8 10
1584000 3 6 7 1 5 11 2 0 4 10 8 9
1585000 3 6 7 1 5 11 2 0 4 10 8 9
1586000 3 6 7 1 5 11 2 0 4 10 8 9
1587000 3 6 7 1 5 11 2 0 4 10 8 9
1588000 3 6 7 1 5 11 2 0 4 10 8 9
1589000 3 6 7 0 5 11 2 1 4 10 8 9
1590000 3 6 7 0 5 11 2 1 4 10 8 9
1591000 3 6 7 0 5 11 2 1 4 10 8 9
1592000 3 6 7 0 5 11 2 1 4 10 8 9
1593000 3 6 7 0 5 11 2 1 4 9 8 10
1594000 3 6 7 0 5 11 2 1 4 9 8 10
1595000 3 6 7 0 5 11 2 1 4 8 9 10
1596000 3 6 7 0 5 11 2 1 4 8 9 10
1597000 3 6 7 0 5 11 2 1 4 8 9 10
1598000 3 6 7 0 5 11 2 1 4 8 9 10
1599000 3 6 7 0 5 11 2 1 4 8 9 10
1600000 3 6 7 0 5 11 2 1 4 8 9 10
1601000 3 7 6 0 5 11 2 1 4 8 9 10
1602000 3 7 6 0 5 11 2 1 4 9 8 10
1603000 2 7 6 0 5 11 3 1 4 9 8 10
1604000 2 7 6 0 5 11 3 1 4 9 8 10
1605000 2 7 6 0 5 11 3 1 4 10 8 9
1606000 2 7 6 0 5 11 3 1 4 10 8 9
1607000 2 7 6 0 5 11 3 1 4 10 8 9
1608000 2 7 6 0 5 11 3 1 4 9 8 10
1609000 2 7 6 1 5 11 3 0 4 9 8 10
1610000 2 7 6 1 5 11 3 0 4 9 8 10
1611000 2 7 6 1 4 11 3 0 5 9 8 10
1612000 2 7 6 0 4 11 3 1 5 9 8 10
1613000 3 7 6 1 4 11 2 0 5 9 8 10
1614000 3 7 6 1 4 11 2 0 5 9 8 10
1615000 3 7 6 1 4 11 2 0 5 9 8 10
1616000 3 7 6 1 4 11 2 0 5 9 8 10
1617000 3 7 6 1 4 11 2 0 5 9 8 10
1618000 3 7 6 1 4 11 2 0 5 9 8 10
1619000 3 7 6 1 4 11 2 0 5 9 8 10
1620000 3 7 6 1 4 11 2 0 5 9 8 10
1621000 3 7 6 1 4 11 2 0 5 9 8 10
1622000 3 7 6 1 4 11 2 0 5 9 8 10
1623000 4 7 5 1 3 11 2 0 6 9 8 10
1624000 4 7 5 2 3 11 1 0 6 9 8 10
1625000 4 7 5 2 3 11 1 0 6 9 8 10
1626000 4 7 5 2 3 11 1 0 6 9 8 10
1627000 4 7 5 2 3 11 1 0 6 9 8 10
1628000 4 7 5 2 3 11 1 0 6 9 8 10
1629000 5 7 4 2 3 11 1 0 6 9 8 10
1630000 5 7 4 2 3 11 1 0 6 9 8 10
1631000 5 7 4 3 2 11 1 0 6 9 8 10
1632000 5 7 4 3 2 11 1 0 6 9 8 10
1633000 5 7 4 2 3 11 1 0 6 9 8 10
1634000 5 7 4 1 3 11 2 0 6 9 8 10
1635000 5 7 4 1 2 11 3 0 6 9 8 10
1636000 5 7 4 1 2 11 3 0 6 9 8 10
1637000 5 7 4 1 2 11 3 0 6 10 8 9
1638000 5 7 4 1 2 11 3 0 6 9 8 10
1639000 5 7 4 1 2 11 3 0 6 8 9 10
1640000 5 7 4 1 2 11 3 0 6 8 9 10
1641000 5 7 4 1 2 11 3 0 6 8 9 10
1642000 5 7 4 1 2 11 3 0 6 8 9 10
1643000 5 7 4 2 1 11 3 0 6 8 9 10
1644000 5 7 4 2 1 11 3 0 6 8 10 9
1645000 5 7 4 2 1 11 3 0 6 8 9 10
1646000 5 7 4 1 2 11 3 0 6 8 9 10
1647000 5 7 4 2 1 11 3 0 6 8 9 10
1648000 5 7 4 2 1 10 3 0 6 8 9 11
1649000 5 7 4 2 1 10 3 0 6 8 9 11
1650000 5 7 4 2 1 10 3 0 6 8 9 11
1651000 5 7 4 2 1 10 3 0 6 8 9 11
1652000 5 7 4 2 1 9 3 0 6 8 10 11
1653000 5 7 4 2 1 9 3 0 6 8 10 11
1654000 5 7 4 2 0 9 3 1 6 8 10 11
1655000 5 7 4 2 0 9 3 1 6 8 10 11
1656000 5 7 4 2 0 10 3 1 6 8 9 11
1657000 5 6 4 2 1 10 3 0 7 9 8 11
1658000 5 7 4 2 1 10 3 0 6 8 9 11
1659000 5 7 4 2 0 10 3 1 6 8 9 11
1660000 5 7 4 2 1 10 3 0 6 8 9 11
1661000 5 7 4 2 1 10 3 0 6 8 9 11
1662000 5 7 4 2 1 10 3 0 6 8 9 11
1663000 5 7 4 2 1 10 3 0 6 8 9 11
1664000 5 7 4 2 1 10 3 0 6 8 9 11
1665000 5 7 4 2 1 10 3 0 6 8 9 11
1666000 5 7 4 2 1 10 3 0 6 8 9 11
1667000 5 7 4 1 2 10 3 0 6 8 9 11
1668000 5 7 4 1 2 10 3 0 6 8 9 11
1669000 5 7 4 1 2 10 3 0 6 8 9 11
1670000 5 7 4 1 2 10 3 0 6 8 9 11
1671000 5 7 4 1 3 10 2 0 6 8 9 11
1672000 5 7 4 1 3 10 2 0 6 8 9 11
1673000 4 6 5 1 3 10 2 0 7 8 9 11
1674000 3 6 5 1 4 10 2 0 7 8 9 11
1675000 3 6 5 1 4 10 2 0 7 8 9 11
1676000 3 6 5 1 4 10 2 0 7 8 9 11
1677000 3 6 5 0 4 11 2 1 7 8 9 10
1678000 4 5 6 0 3 11 2 1 7 8 9 10
1679000 4 5 6 0 3 10 2 1 7 8 9 11
1680000 4 5 6 0 3 10 2 1 7 8 9 11
1681000 3 5 6 0 4 10 2 1 7 8 9 11
1682000 3 5 6 0 4 10 2 1 7 8 9 11
1683000 3 5 6 0 4 10 2 1 7 8 9 11
1684000 3 5 6 0 4 10 2 1 7 9 8 11
1685000 3 5 6 0 4 10 2 1 7 9 8 11
1686000 3 5 6 0 4 10 1 2 7 9 8 11
1687000 3 5 6 0 4 10 1 2 7 8 9 11
1688000 3 4 6 0 5 10 1 2 7 8 9 11
1689000 3 4 7 0 5 10 1 2 6 8 9 11
1690000 3 4 7 0 5 10 1 2 6 8 9 11
1691000 3 4 7 0 5 10 1 2 6 8 9 11
1692000 3 4 7 0 5 10 1 2 6 8 9 11
1693000 3 4 7 0 6 10 1 2 5 8 9 11
1694000 3 4 7 0 6 10 1 2 5 8 9 11
1695000 3 4 7 0 5 10 1 2 6 8 9 11
1696000 3 4 7 0 5 10 2 1 6 8 9 11
1697000 3 4 7 0 5 10 2 1 6 8 9 11
1698000 3 4 7 0 5 10 2 1 6 8 9 11
1699000 3 4 7 0 5 10 2 1 6 8 9 11
1700000 3 4 7 0 5 10 2 1 6 8 9 11
1701000 3 4 7 0 5 10 2 1 6 8 9 11
1702000 3 4 7 0 5 10 2 1 6 8 9 11
1703000 3 4 7 0 5 10 2 1 6 8 9 11
1704000 3 4 7 0 5 10 2 1 6 8 9 11
1705000 3 5 7 0 4 10 2 1 6 8 9 11
1706000 3 5 7 0 4 9 2 1 6 8 10 11
1707000 3 5 7 0 4 9 2 1 6 8 10 11
1708000 3 6 7 0 4 9 1 2 5 8 10 11
1709000 3 6 7 0 4 10 1 2 5 8 9 11
1710000 3 6 7 0 4 10 1 2 5 8 9 11
1711000 3 6 7 0 4 10 1 2 5 9 8 11
1712000 3 6 7 0 4 10 1 2 5 8 9 11
1713000 3 6 7 0 4 10 1 2 5 8 9 11
1714000 3 6 7 0 4 10 1 2 5 8 9 11
1715000 3 6 7 0 4 10 1 2 5 9 8 11
1716000 3 6 7 0 4 10 1 2 5 9 8 11
1717000 3 6 7 0 5 10 1 2 4 9 8 11
1718000 3 6 7 0 5 10 1 2 4 8 9 11
1719000 3 6 7 0 5 10 1 2 4 8 9 11
1720000 3 6 7 0 5 10 1 2 4 8 9 11
1721000 2 6 7 0 4 10 1 3 5 9 8 11
1722000 2 6 7 0 4 9 1 3 5 10 8 11
1723000 2 6 7 0 4 9 1 3 5 10 8 11
1724000 2 6 7 0 4 9 1 3 5 10 8 11
1725000 2 6 7 0 4 9 1 3 5 10 8 11
1726000 2 7 6 0 4 9 1 3 5 10 8 11
1727000 2 7 6 0 4 9 1 3 5 10 8 11
1728000 2 7 6 0 4 9 1 3 5 10 8 11
1729000 2 7 6 0 4 9 1 3 5 10 8 11
1730000 2 7 6 0 4 10 1 3 5 9 8 11
1731000 2 6 7 0 4 10 1 3 5 9 8 11
1732000 2 5 7 0 4 10 1 3 6 9 8 11
1733000 2 5 7 0 4 10 1 3 6 9 8 11
1734000 2 5 7 0 4 10 1 3 6 9 8 11
1735000 2 5 7 0 4 10 1 3 6 9 8 11
1736000 2 5 7 1 4 10 0 3 6 9 8 11
1737000 2 5 7 1 4 10 0 3 6 9 8 11
1738000 2 5 7 0 4 10 1 3 6 9 8 11
1739000 2 5 7 0 4 10 1 3 6 8 9 11
1740000 2 5 7 0 4 10 1 3 6 8 9 11
1741000 2 5 7 0 4 10 1 3 6 8 9 11
1742000 2 5 7 0 3 9 1 4 6 8 10 11
1743000 2 5 7 0 3 9 1 4 6 8 10 11
1744000 3 5 7 0 2 9 1 4 6 8 10 11
1745000 3 5 7 0 2 9 1 4 6 8 10 11
1746000 2 5 7 0 3 9 1 4 6 8 10 11
1747000 2 5 7 0 3 10 1 4 6 8 9 11
1748000 2 5 7 0 3 11 1 4 6 8 9 10
1749000 2 5 7 0 3 11 1 4 6 8 9 10
1750000 2 5 7 0 3 11 1 4 6 8 10 9
1751000 3 5 6 0 2 11 1 4 7 8 10 9
1752000 4 5 6 0 1 11 2 3 7 8 10 9
1753000 4 5 6 0 1 11 2 3 7 8 10 9
1754000 4 5 6 0 1 11 2 3 7 8 10 9
1755000 4 5 6 0 1 11 2 3 7 8 9 10
1756000 3 5 6 0 1 11 2 4 7 8 9 10
1757000 3 5 6 0 1 11 2 4 7 8 9 10
1758000 3 6 5 0 1 11 2 4 7 8 9 10
1759000 4 6 5 0 1 11 2 3 7 8 9 10
1760000 4 5 6 0 1 11 2 3 7 8 9 10
1761000 3 5 6 0 1 11 2 4 7 8 10 9
1762000 4 5 6 0 1 11 2 3 7 8 9 10
1763000 4 5 6 0 1 11 2 3 7 8 9 10
1764000 4 5 6 0 1 11 2 3 7 8 9 10
1765000 4 5 6 0 1 11 2 3 7 8 9 10
1766000 4 5 6 0 1 11 2 3 7 8 9 10
1767000 3 6 5 0 1 11 2 4 7 8 10 9
1768000 3 6 5 0 1 11 2 4 7 8 10 9
1769000 3 6 5 0 1 11 2 4 7 8 10 9
1770000 3 6 5 0 1 11 2 4 7 8 10 9
1771000 3 5 6 0 1 11 2 4 7 8 10 9
1772000 3 5 6 0 1 11 2 4 7 8 9 10
1773000 3 5 6 0 1 11 2 4 7 8 9 10
1774000 3 5 6 0 1 11 2 4 7 8 10 9
1775000 3 5 6 1 0 10 2 4 7 8 11 9
1776000 3 5 6 1 0 10 2 4 7 8 11 9
1777000 4 5 6 1 0 10 2 3 7 8 11 9
1778000 4 6 5 1 0 10 2 3 7 8 11 9
1779000 4 6 5 1 0 10 3 2 7 8 11 9
1780000 4 6 5 0 1 10 3 2 7 8 11 9
1781000 4 6 5 0 1 10 3 2 7 8 11 9
1782000 4 6 5 0 1 9 3 2 7 8 11 10
1783000 4 6 5 0 1 9 3 2 7 8 11 10
1784000 4 6 5 1 0 9 3 2 7 8 11 10
1785000 4 6 5 1 0 9 3 2 7 8 11 10
1786000 4 6 5 1 0 9 3 2 7 8 11 10
1787000 4 6 5 1 0 9 3 2 7 8 11 10
1788000 4 6 5 1 0 9 3 2 7 8 11 10
1789000 4 6 5 1 0 9 3 2 7 8 11 10
1790000 4 6 5 1 0 10 3 2 7 8 11 9
1791000 4 6 5 1 0 10 3 2 7 8 11 9
1792000 4 6 5 1 0 10 2 3 7 9 11 8
1793000 4 6 5 1 0 10 2 3 7 9 11 8
1794000 4 6 5 1 0 10 2 3 7 9 11 8
1795000 4 6 5 1 0 9 2 3 7 10 11 8
1796000 4 6 5 1 0 10 2 3 7 9 11 8
1797000 4 6 5 1 0 10 2 3 7 9 11 8
1798000 4 6 5 1 0 10 2 3 7 9 11 8
1799000 4 6 5 1 0 10 2 3 7 9 11 8
1800000 4 6 5 2 0 10 1 3 7 9 11 8
1801000 4 6 5 2 0 10 1 3 7 9 11 8
1802000 4 7 5 2 0 10 1 3 6 8 11 9
1803000 4 6 5 2 0 10 1 3 7 8 11 9
1804000 4 6 5 2 0 10 1 3 7 8 11 9
1805000 4 6 5 2 0 10 1 3 7 8 11 9
1806000 4 5 6 2 0 9 1 3 7 8 11 10
1807000 4 5 6 2 0 10 1 3 7 8 11 9
1808000 4 5 6 2 0 9 1 3 7 8 11 10
1809000 4 5 6 2 1 9 0 3 7 8 11 10
1810000 4 5 6 2 1 9 0 3 7 8 11 10
1811000 4 5 7 2 0 9 1 3 6 8 11 10
1812000 4 5 7 2 0 9 1 3 6 8 11 10
1813000 4 5 7 2 0 9 1 3 6 8 11 10
1814000 4 5 7 2 0 8 1 3 6 9 11 10
1815000 4 5 7 2 0 8 1 3 6 9 11 10
1816000 4 5 7 2 0 8 1 3 6 9 11 10
1817000 5 4 7 2 0 8 1 3 6 9 11 10
1818000 5 4 7 2 0 9 1 3 6 8 11 10
1819000 6 4 7 2 0 9 1 3 5 8 11 10
1820000 6 4 7 2 0 9 1 3 5 8 11 10
1821000 6 4 7 2 0 9 1 3 5 8 11 10
1822000 6 3 7 2 0 9 1 4 5 8 11 10
1823000 6 3 7 2 0 9 1 4 5 8 11 10
1824000 6 3 7 2 0 9 1 4 5 8 11 10
1825000 6 3 7 2 1 8 0 4 5 9 11 10
1826000 7 3 6 2 0 9 1 4 5 8 11 10
1827000 7 3 6 2 0 9 1 4 5 8 11 10
1828000 7 3 6 2 0 10 1 4 5 8 11 9
1829000 7 3 6 2 0 10 1 4 5 8 11 9
1830000 7 3 6 2 0 10 1 4 5 8 11 9
1831000 7 3 6 2 0 10 1 4 5 8 11 9
1832000 7 3 6 2 0 10 1 4 5 9 11 8
1833000 7 3 6 2 1 10 0 4 5 8 11 9
1834000 7 4 6 2 1 10 0 3 5 8 11 9
1835000 7 4 6 2 1 10 0 3 5 8 11 9
1836000 7 4 6 2 1 10 0 3 5 8 11 9
1837000 7 4 6 2 1 10 0 3 5 8 11 9
1838000 7 4 6 2 1 10 0 3 5 8 11 9
1839000 7 4 6 1 2 10 0 3 5 8 11 9
1840000 7 4 6 1 2 10 0 3 5 8 11 9
1841000 7 4 6 1 2 10 0 3 5 8 11 9
1842000 7 4 6 1 2 10 0 3 5 8 11 9
1843000 6 4 7 1 2 10 0 3 5 8 11 9
1844000 6 4 7 1 2 10 0 3 5 8 11 9
1845000 6 4 7 1 2 10 0 3 5 9 11 8
1846000 6 4 7 1 2 10 0 3 5 9 11 8
1847000 6 4 7 1 2 10 0 3 5 9 11 8
1848000 6 4 7 1 2 10 0 3 5 9 11 8
1849000 6 4 7 1 2 10 0 3 5 8 11 9
1850000 6 4 7 1 2 10 0 3 5 8 11 9
1851000 5 4 7 1 2 10 0 3 6 8 11 9
1852000 5 4 7 1 2 10 0 3 6 8 11 9
1853000 5 4 7 1 2 10 0 3 6 8 11 9
1854000 5 4 7 1 2 10 0 3 6 8 11 9
1855000 5 4 7 1 2 9 0 3 6 8 11 10
1856000 5 4 7 1 2 10 0 3 6 8 11 9
1857000 5 4 7 1 2 10 0 3 6 8 11 9
1858000 5 4 7 1 2 10 0 3 6 8 11 9
1859000 5 4 7 1 2 9 0 3 6 8 11 10
1860000 5 4 7 1 2 9 0 3 6 8 11 10
1861000 5 4 7 1 2 10 0 3 6 8 11 9
1862000 5 4 7 1 2 10 0 3 6 8 11 9
1863000 5 4 7 1 2 9 0 3 6 8 11 10
1864000 5 4 6 1 2 9 0 3 7 8 11 10
1865000 5 4 6 1 2 9 0 3 7 8 11 10
1866000 5 4 6 1 2 9 0 3 7 8 11 10
1867000 5 3 6 1 2 9 0 4 7 8 11 10
1868000 5 3 6 1 2 8 0 4 7 9 11 10
1869000 5 3 6 0 2 8 1 4 7 9 11 10
1870000 5 3 6 0 2 8 1 4 7 9 11 10
1871000 5 4 6 0 2 8 1 3 7 9 11 10
1872000 5 4 6 0 2 8 1 3 7 9 11 10
1873000 5 4 6 0 2 8 1 3 7 9 11 10
1874000 5 4 6 1 2 8 0 3 7 9 11 10
1875000 5 4 6 1 2 8 0 3 7 9 11 10
1876000 5 4 7 1 2 8 0 3 6 9 11 10
1877000 5 4 7 1 2 8 0 3 6 9 11 10
1878000 5 4 7 1 2 8 0 3 6 9 11 10
1879000 5 4 7 1 2 8 0 3 6 9 11 10
1880000 5 4 7 1 2 8 0 3 6 9 11 10
1881000 5 4 7 1 2 8 0 3 6 9 11 10
1882000 5 4 7 1 2 8 0 3 6 9 11 10
1883000 5 4 7 1 2 8 0 3 6 9 11 10
1884000 5 4 7 1 2 8 0 3 6 9 11 10
1885000 5 4 7 2 1 8 0 3 6 10 11 9
1886000 5 4 7 2 1 9 0 3 6 10 11 8
1887000 5 4 7 2 1 8 0 3 6 10 11 9
1888000 5 4 7 2 1 8 0 3 6 9 11 10
1889000 5 4 7 2 1 8 0 3 6 9 11 10
1890000 5 4 6 2 1 9 0 3 7 8 11 10
1891000 5 4 6 2 1 9 0 3 7 8 11 10
1892000 5 4 6 2 1 9 0 3 7 8 11 10
1893000 5 4 6 2 1 9 0 3 7 8 11 10
1894000 5 4 6 2 1 9 0 3 7 8 11 10
1895000 5 4 6 2 1 9 0 3 7 8 11 10
1896000 5 4 6 2 1 9 0 3 7 8 11 10
1897000 5 4 6 2 1 8 0 3 7 9 11 10
1898000 5 4 6 2 1 8 0 3 7 9 11 10
1899000 5 4 6 2 1 8 0 3 7 9 11 10
1900000 5 4 6 2 1 8 0 3 7 10 11 9
1901000 5 4 6 1 2 8 0 3 7 10 11 9
1902000 5 4 6 1 2 8 0 3 7 10 11 9
1903000 4 5 6 1 2 8 0 3 7 10 11 9
1904000 4 5 6 0 2 8 1 3 7 10 11 9
1905000 4 5 6 0 2 8 1 3 7 10 11 9
1906000 4 5 6 0 2 8 1 3 7 9 11 10
1907000 4 5 7 0 2 8 1 3 6 9 11 10
1908000 4 5 7 0 2 9 1 3 6 8 11 10
1909000 4 6 7 0 2 9 1 3 5 8 11 10
1910000 5 6 7 0 2 8 1 3 4 9 11 10
1911000 5 6 7 0 2 9 1 3 4 8 11 10
1912000 5 6 7 0 2 8 1 3 4 9 11 10
1913000 5 6 7 1 2 8 0 3 4 9 11 10
1914000 5 7 6 1 2 9 0 3 4 8 11 10
1915000 5 7 6 0 2 9 1 3 4 8 11 10
1916000 5 7 6 0 2 9 1 3 4 8 11 10
1917000 5 7 6 0 2 9 1 3 4 8 10 11
1918000 5 7 6 0 2 8 1 3 4 9 10 11
1919000 5 7 6 0 2 8 1 3 4 9 11 10
1920000 5 7 6 0 2 8 1 3 4 9 11 10
1921000 5 7 6 0 3 8 1 2 4 9 11 10
1922000 5 7 6 0 3 8 1 2 4 9 11 10
1923000 5 7 6 0 4 8 2 1 3 9 11 10
1924000 5 7 6 0 4 8 2 1 3 9 11 10
1925000 5 7 6 0 4 8 2 1 3 9 11 10
1926000 5 7 6 0 4 8 2 1 3 9 11 10
1927000 5 7 6 0 4 8 2 1 3 9 11 10
1928000 5 7 6 1 4 8 2 0 3 9 11 10
1929000 5 7 6 1 4 8 2 0 3 9 11 10
1930000 5 7 6 1 4 8 2 0 3 9 11 10
1931000 5 7 6 1 4 8 2 0 3 9 11 10
1932000 5 7 6 1 4 8 2 0 3 9 11 10
1933000 5 7 6 1 4 8 2 0 3 9 11 10
1934000 5 7 6 1 3 8 2 0 4 9 11 10
1935000 5 7 6 1 3 9 2 0 4 8 11 10
1936000 5 7 6 1 3 9 2 0 4 8 11 10
1937000 5 7 6 1 3 9 2 0 4 8 11 10
1938000 5 7 6 1 3 9 2 0 4 8 11 10
1939000 5 7 6 1 3 9 2 0 4 8 11 10
1940000 5 7 6 0 3 8 2 1 4 9 11 10
1941000 5 7 6 0 3 8 2 1 4 9 11 10
1942000 5 7 6 0 2 9 3 1 4 8 11 10
1943000 5 7 6 0 3 8 2 1 4 9 11 10
1944000 5 7 6 0 3 8 2 1 4 9 11 10
1945000 5 7 6 0 3 8 1 2 4 9 11 10
1946000 5 7 6 0 3 8 1 2 4 9 11 10
1947000 5 7 6 0 3 8 1 2 4 10 11 9
1948000 5 7 6 0 3 8 1 2 4 10 11 9
1949000 5 7 6 0 3 8 1 2 4 10 11 9
1950000 5 7 6 0 3 8 1 2 4 10 11 9
1951000 5 7 6 0 3 8 2 1 4 10 11 9
1952000 5 7 6 0 3 8 2 1 4 10 11 9
1953000 5 7 6 0 3 8 2 1 4 9 11 10
1954000 5 7 6 0 3 8 2 1 4 9 11 10
1955000 5 7 6 0 3 9 2 1 4 8 11 10
1956000 5 7 6 0 3 9 2 1 4 8 11 10
1957000 5 7 6 1 3 9 2 0 4 8 11 10
1958000 5 7 6 1 3 9 2 0 4 8 11 10
1959000 5 7 6 1 2 8 3 0 4 9 11 10
1960000 5 7 6 1 2 8 3 0 4 9 11 10
1961000 5 7 6 1 2 8 3 0 4 10 11 9
1962000 6 7 5 1 2 8 4 0 3 10 11 9
1963000 6 7 5 1 2 8 4 0 3 10 11 9
1964000 6 7 5 1 2 8 4 0 3 10 11 9
1965000 6 7 5 1 2 8 4 0 3 10 11 9
1966000 6 7 4 1 2 9 5 0 3 10 11 8
1967000 6 7 5 1 2 9 4 0 3 10 11 8
1968000 7 6 5 1 2 9 4 0 3 10 11 8
1969000 7 6 5 1 2 9 4 0 3 10 11 8
1970000 7 6 5 1 2 9 4 0 3 10 11 8
1971000 7 6 5 1 2 9 4 0 3 10 11 8
1972000 6 7 5 0 2 9 4 1 3 10 11 8
1973000 6 7 5 0 2 9 4 1 3 10 11 8
1974000 6 7 5 0 2 9 4 1 3 10 11 8
1975000 6 7 5 0 2 9 4 1 3 10 11 8
1976000 6 7 5 0 2 9 4 1 3 10 11 8
1977000 6 7 5 0 2 9 4 1 3 10 11 8
1978000 6 7 5 0 2 9 4 1 3 10 11 8
1979000 6 7 5 0 2 9 3 1 4 10 11 8
1980000 6 7 5 0 2 9 3 1 4 10 11 8
1981000 6 7 5 0 2 9 3 1 4 10 11 8
1982000 6 7 5 0 2 9 3 1 4 10 11 8
1983000 6 7 5 0 2 9 4 1 3 10 11 8
1984000 6 7 5 0 2 9 4 1 3 10 11 8
1985000 6 7 5 0 2 9 4 1 3 10 11 8
1986000 6 7 5 0 2 9 4 1 3 10 11 8
1987000 6 7 5 0 2 9 4 1 3 10 11 8
1988000 6 7 5 0 2 8 4 1 3 10 11 9
1989000 6 7 5 0 2 8 3 1 4 10 11 9
1990000 6 7 5 0 2 9 3 1 4 10 11 8
1991000 6 7 5 0 2 9 3 1 4 10 11 8
1992000 6 7 5 0 2 9 3 1 4 10 11 8
1993000 6 7 5 0 2 9 4 1 3 10 11 8
1994000 6 7 5 0 3 9 4 1 2 10 11 8
1995000 6 7 5 0 3 9 4 1 2 10 11 8
1996000 6 7 5 0 3 9 4 1 2 10 11 8
1997000 6 7 5 0 3 9 4 1 2 10 11 8
1998000 6 7 5 0 3 9 4 1 2 10 11 8
1999000 6 7 5 0 4 9 3 1 2 10 11 8
2000000 6 7 5 0 4 9 3 1 2 10 11 8
2001000 6 7 5 0 4 9 3 1 2 10 11 8
2002000 6 7 5 0 4 9 3 1 2 10 11 8
2003000 6 7 5 0 4 9 3 1 2 10 11 8
2004000 6 7 5 1 4 8 3 0 2 10 11 9
2005000 6 7 5 1 4 9 3 0 2 10 11 8
2006000 6 7 5 1 4 9 3 0 2 10 11 8
2007000 6 7 5 1 4 9 3 0 2 10 11 8
2008000 6 7 5 1 4 9 3 0 2 10 11 8
2009000 5 7 6 1 4 9 3 0 2 10 11 8
2010000 6 7 5 1 4 9 3 0 2 10 11 8
2011000 6 7 5 2 4 9 3 0 1 10 11 8
2012000 6 7 5 2 4 10 3 0 1 9 11 8
2013000 5 7 6 2 4 10 3 0 1 9 11 8
2014000 5 7 6 2 3 10 4 0 1 9 11 8
2015000 5 7 6 2 3 10 4 0 1 9 11 8
2016000 5 7 6 2 3 10 4 0 1 9 11 8
2017000 5 7 6 2 3 10 4 0 1 9 11 8
2018000 5 7 6 2 3 9 4 0 1 10 11 8
2019000 5 7 6 2 3 9 4 0 1 10 11 8
2020000 5 7 6 2 3 9 4 0 1 10 11 8
2021000 5 7 6 2 3 9 4 0 1 10 11 8
2022000 5 7 6 2 3 9 4 0 1 10 11 8
2023000 5 7 6 2 3 9 4 0 1 10 11 8
2024000 6 7 5 2 3 10 4 0 1 9 11 8
2025000 6 7 5 2 3 9 4 0 1 10 11 8
2026000 6 7 5 2 3 9 4 0 1 10 11 8
2027000 6 7 5 2 3 10 4 0 1 9 11 8
2028000 6 7 5 2 3 10 4 0 1 9 11 8
2029000 6 7 5 2 3 10 4 0 1 9 11 8
2030000 7 6 4 2 3 10 5 0 1 9 11 8
2031000 7 6 4 2 3 10 5 0 1 9 11 8
2032000 7 5 4 2 3 10 6 0 1 9 11 8
2033000 7 5 4 2 3 10 6 0 1 9 11 8
2034000 7 5 4 2 3 10 6 0 1 9 11 8
2035000 7 5 4 2 3 10 6 0 1 9 11 8
2036000 7 5 4 2 3 10 6 0 1 9 11 8
2037000 6 5 4 2 3 10 7 0 1 9 11 8
2038000 5 6 4 2 3 10 7 0 1 9 11 8
2039000 5 6 4 2 3 10 7 0 1 9 11 8
2040000 5 6 3 1 4 10 7 0 2 9 11 8
2041000 5 6 3 1 4 10 7 0 2 9 11 8
2042000 5 6 3 1 4 10 7 0 2 9 11 8
2043000 4 6 3 1 5 11 7 0 2 9 10 8
2044000 4 6 3 1 5 11 7 0 2 9 10 8
2045000 4 6 3 0 5 11 7 1 2 9 10 8
2046000 4 6 3 0 5 11 7 2 1 9 10 8
2047000 4 6 3 0 5 11 7 2 1 9 10 8
2048000 4 5 3 0 6 11 7 2 1 9 10 8
2049000 4 5 3 0 6 11 7 2 1 9 10 8
2050000 4 5 3 0 6 11 7 2 1 9 10 8
2051000 4 5 3 0 6 11 7 2 1 9 10 8
2052000 4 5 3 0 6 11 7 1 2 9 10 8
2053000 4 5 3 0 6 11 7 1 2 9 10 8
2054000 4 5 3 0 6 11 7 1 2 9 10 8
2055000 4 5 3 1 7 11 6 0 2 9 10 8
2056000 4 5 3 0 6 11 7 1 2 9 10 8
2057000 4 5 3 0 6 11 7 1 2 9 10 8
2058000 4 5 3 0 6 11 7 1 2 9 10 8
2059000 4 5 3 0 6 10 7 1 2 9 11 8
2060000 4 5 3 0 6 10 7 1 2 9 11 8
2061000 4 5 3 0 6 10 7 1 2 9 11 8
2062000 4 5 3 0 6 10 7 1 2 9 11 8
2063000 3 5 4 0 6 9 7 1 2 10 11 8
2064000 3 5 4 0 6 9 7 1 2 10 11 8
2065000 3 5 4 0 6 9 7 1 2 10 11 8
2066000 3 5 4 0 6 9 7 2 1 10 11 8
2067000 3 5 4 0 6 9 7 2 1 10 11 8
2068000 3 5 4 0 6 9 7 2 1 10 11 8
2069000 3 5 4 0 6 9 7 2 1 10 11 8
2070000 3 5 4 0 6 9 7 2 1 10 11 8
2071000 3 5 4 0 6 9 7 2 1 10 11 8
2072000 3 5 4 0 6 9 7 2 1 10 11 8
2073000 2 5 4 1 6 9 7 3 0 10 11 8
2074000 2 5 4 0 6 8 7 3 1 10 11 9
2075000 2 5 4 0 6 8 7 3 1 10 11 9
2076000 2 5 4 0 6 8 7 3 1 10 11 9
2077000 2 5 4 0 6 9 7 3 1 10 11 8
2078000 2 5 4 0 7 9 6 3 1 10 11 8
2079000 2 5 4 0 7 9 6 3 1 10 11 8
2080000 2 5 4 0 7 9 6 3 1 10 11 8
2081000 2 5 4 0 7 9 6 3 1 10 11 8
2082000 2 6 4 0 7 9 5 3 1 10 11 8
2083000 2 6 4 0 7 9 5 3 1 10 11 8
2084000 2 6 4 0 7 9 5 3 1 10 11 8
2085000 2 6 4 1 7 9 5 3 0 10 11 8
2086000 2 5 4 1 7 9 6 3 0 10 11 8
2087000 2 5 4 1 7 9 6 3 0 10 11 8
2088000 2 5 4 1 6 9 7 3 0 10 11 8
2089000 3 5 4 1 6 9 7 2 0 10 11 8
2090000 3 6 4 1 5 9 7 2 0 10 11 8
2091000 3 6 4 1 5 10 7 2 0 9 11 8
2092000 3 6 4 1 5 10 7 2 0 9 11 8
2093000 3 6 4 1 5 9 7 2 0 10 11 8
2094000 3 5 4 1 6 10 7 2 0 9 11 8
2095000 3 5 4 1 6 10 7 2 0 9 11 8
2096000 3 5 4 1 6 10 7 2 0 9 11 8
2097000 3 5 4 1 6 10 7 2 0 8 11 9
2098000 3 5 4 1 6 10 7 2 0 8 11 9
2099000 3 5 4 1 6 10 7 2 0 8 11 9
2100000 3 5 4 1 6 10 7 2 0 8 11 9
2101000 3 5 4 1 6 10 7 2 0 8 11 9
2102000 3 5 4 2 6 10 7 1 0 8 11 9
2103000 3 5 4 2 7 10 6 1 0 8 11 9
2104000 3 5 4 2 7 9 6 1 0 8 11 10
2105000 3 5 4 2 7 9 6 1 0 8 11 10
2106000 3 5 4 2 7 10 6 1 0 8 11 9
2107000 3 5 4 2 7 10 6 0 1 8 11 9
2108000 3 5 4 2 7 10 6 0 1 8 11 9
2109000 3 5 4 2 7 10 6 0 1 9 11 8
2110000 3 5 4 2 7 10 6 0 1 9 11 8
2111000 3 5 4 2 7 10 6 0 1 9 11 8
2112000 3 5 4 2 7 10 6 1 0 8 11 9
2113000 3 5 4 2 7 10 6 0 1 8 11 9
2114000 3 5 4 2 7 10 6 0 1 8 11 9
2115000 3 5 4 2 7 10 6 0 1 8 11 9
2116000 3 5 4 2 7 10 6 0 1 8 11 9
2117000 3 5 4 2 7 10 6 0 1 8 11 9
2118000 3 6 4 2 7 10 5 0 1 8 11 9
2119000 3 6 4 2 7 11 5 1 0 8 10 9
2120000 3 6 4 1 7 11 5 2 0 8 10 9
2121000 4 6 3 1 7 11 5 2 0 8 10 9
2122000 4 6 3 1 7 11 5 2 0 8 10 9
2123000 4 6 3 1 7 11 5 2 0 8 10 9
2124000 4 6 3 1 7 11 5 2 0 8 10 9
2125000 4 6 3 1 7 11 5 2 0 8 10 9
2126000 4 6 3 1 7 11 5 2 0 8 10 9
2127000 4 7 3 1 6 10 5 2 0 8 11 9
2128000 4 7 3 1 6 10 5 2 0 8 11 9
2129000 4 7 3 1 6 10 5 2 0 8 11 9
2130000 4 7 3 1 6 10 5 2 0 8 11 9
2131000 3 7 4 1 5 10 6 2 0 8 11 9
2132000 3 7 4 1 5 10 6 2 0 8 11 9
2133000 3 7 4 1 5 10 6 2 0 8 11 9
2134000 3 7 4 1 5 10 6 2 0 8 11 9
2135000 3 7 4 1 5 10 6 2 0 9 11 8
2136000 3 7 4 1 5 10 6 2 0 9 11 8
2137000 3 7 4 1 5 10 6 2 0 9 11 8
2138000 3 7 4 1 6 10 5 2 0 9 11 8
2139000 3 7 4 1 6 10 5 2 0 9 11 8
2140000 3 7 4 1 6 10 5 2 0 9 11 8
2141000 3 7 4 1 6 10 5 2 0 9 11 8
2142000 3 7 4 1 6 10 5 2 0 8 11 9
2143000 3 7 4 1 6 10 5 2 0 8 11 9
2144000 3 7 4 1 6 10 5 2 0 8 11 9
2145000 3 7 4 1 6 10 5 2 0 8 11 9
2146000 3 7 4 1 5 10 6 2 0 8 11 9
2147000 3 7 4 0 5 10 6 2 1 8 11 9
2148000 3 7 4 0 5 10 6 2 1 8 11 9
2149000 3 7 4 0 6 10 5 2 1 8 11 9
2150000 3 7 4 0 6 10 5 2 1 8 11 9
2151000 3 7 4 1 6 10 5 2 0 8 11 9
2152000 2 7 4 0 6 10 5 3 1 8 11 9
2153000 2 7 4 0 6 10 5 3 1 8 11 9
2154000 2 7 4 0 6 10 5 3 1 8 11 9
2155000 2 7 4 0 6 10 5 3 1 8 11 9
2156000 2 7 4 0 6 10 5 3 1 8 11 9
2157000 2 7 4 0 6 10 5 3 1 8 11 9
2158000 1 7 4 0 6 10 5 3 2 8 11 9
2159000 1 7 4 0 6 10 5 3 2 9 11 8
2160000 1 7 4 0 6 10 5 3 2 9 11 8
2161000 1 7 4 0 6 9 5 3 2 10 11 8
2162000 2 7 4 0 6 10 5 3 1 9 11 8
2163000 2 7 4 0 6 10 5 3 1 9 11 8
2164000 2 7 4 0 6 11 5 3 1 8 10 9
2165000 2 7 4 0 6 11 5 3 1 8 10 9
2166000 2 7 4 0 6 11 5 3 1 8 10 9
2167000 2 7 4 0 6 11 5 3 1 8 10 9
2168000 2 6 4 0 7 11 5 3 1 8 10 9
2169000 2 6 4 0 7 11 5 3 1 8 10 9
2170000 2 6 4 0 7 11 5 3 1 8 10 9
2171000 2 6 4 0 7 11 5 3 1 8 10 9
2172000 2 6 4 0 7 11 5 3 1 8 10 9
2173000 2 6 5 0 7 11 4 3 1 8 10 9
2174000 2 5 6 0 7 11 3 4 1 8 10 9
2175000 2 5 6 0 7 11 3 4 1 8 10 9
2176000 2 5 6 0 7 11 4 3 1 8 10 9
2177000 2 6 5 0 7 11 4 3 1 8 10 9
2178000 2 6 5 0 7 11 3 4 1 8 10 9
2179000 1 6 5 0 7 11 3 4 2 8 10 9
2180000 1 6 5 0 7 11 3 4 2 8 10 9
2181000 1 6 5 0 7 11 3 4 2 8 10 9
2182000 1 6 5 0 7 11 3 4 2 8 10 9
2183000 1 6 5 0 7 11 3 4 2 8 10 9
2184000 2 6 5 0 7 11 3 4 1 8 10 9
2185000 2 6 5 0 7 11 3 4 1 8 10 9
2186000 2 6 5 0 7 11 3 4 1 8 10 9
2187000 2 6 5 0 7 11 3 4 1 8 10 9
2188000 2 6 5 0 7 11 3 4 1 8 10 9
2189000 2 7 5 0 6 11 3 4 1 8 10 9
2190000 2 7 5 0 6 11 3 4 1 8 10 9
2191000 2 7 5 1 6 11 3 4 0 8 10 9
2192000 2 7 5 1 6 11 3 4 0 8 10 9
2193000 2 7 5 1 6 11 3 4 0 8 9 10
2194000 2 7 5 1 6 11 3 4 0 8 9 10
2195000 2 7 5 1 6 11 3 4 0 8 9 10
2196000 2 7 5 1 6 11 3 4 0 8 9 10
2197000 2 7 5 0 6 11 3 4 1 8 9 10
2198000 2 7 5 1 6 11 3 4 0 8 9 10
2199000 2 7 5 1 6 11 3 4 0 8 9 10
2200000 2 7 5 1 6 11 3 4 0 8 9 10
2201000 2 7 5 1 6 11 3 4 0 8 9 10
2202000 2 7 5 1 6 11 3 4 0 8 9 10
2203000 2 7 5 1 6 11 3 4 0 8 9 10
2204000 2 7 6 1 5 11 3 4 0 8 9 10
2205000 2 7 6 1 5 11 3 4 0 8 9 10
2206000 2 7 6 1 5 11 3 4 0 8 9 10
2207000 2 7 6 1 5 11 3 4 0 8 9 10
2208000 2 7 5 1 6 11 3 4 0 8 10 9
2209000 2 6 5 1 7 11 3 4 0 8 10 9
2210000 2 6 5 1 7 11 3 4 0 8 10 9
2211000 2 6 5 1 7 11 3 4 0 8 10 9
2212000 2 6 5 1 7 11 3 4 0 8 10 9
2213000 2 6 5 1 7 11 3 4 0 8 10 9
2214000 2 5 6 1 7 11 3 4 0 8 10 9
2215000 2 5 6 1 7 11 3 4 0 8 10 9
2216000 2 4 6 1 7 11 3 5 0 9 10 8
2217000 2 4 6 1 7 11 3 5 0 9 10 8
2218000 2 4 6 1 7 11 3 5 0 9 10 8
2219000 3 4 6 1 7 10 2 5 0 8 11 9
2220000 3 4 6 1 7 10 2 5 0 8 11 9
2221000 3 4 6 1 7 10 2 5 0 8 11 9
2222000 3 4 6 1 7 10 2 5 0 8 11 9
2223000 3 4 5 1 7 10 2 6 0 8 11 9
2224000 3 4 5 1 7 10 2 6 0 8 11 9
2225000 3 4 5 1 7 10 2 6 0 8 11 9
2226000 4 3 6 1 7 10 2 5 0 8 11 9
2227000 4 3 6 1 7 10 2 5 0 8 11 9
2228000 4 3 6 1 7 10 2 5 0 8 11 9
2229000 4 3 6 1 7 10 2 5 0 8 11 9
2230000 4 3 5 1 7 10 2 6 0 8 11 9
2231000 4 3 5 1 7 10 2 6 0 8 11 9
2232000 4 3 5 0 7 10 2 6 1 8 11 9
2233000 4 3 5 0 7 10 2 6 1 8 11 9
2234000 4 3 5 0 7 10 2 6 1 8 11 9
2235000 4 3 5 0 7 10 2 6 1 9 11 8
2236000 4 3 5 0 7 10 2 6 1 9 11 8
2237000 4 3 5 0 7 10 2 6 1 9 11 8
2238000 4 3 5 0 7 10 2 6 1 9 11 8
2239000 4 3 5 0 7 10 2 6 1 9 11 8
2240000 4 3 5 0 7 10 2 6 1 9 11 8
2241000 4 3 5 1 7 10 2 6 0 9 11 8
2242000 4 3 5 1 7 10 2 6 0 9 11 8
2243000 4 3 6 1 7 10 2 5 0 9 11 8
2244000 4 3 6 1 7 10 2 5 0 9 11 8
2245000 4 3 6 1 7 10 2 5 0 9 11 8
2246000 4 3 6 1 7 10 2 5 0 9 11 8
2247000 4 3 6 1 7 10 2 5 0 9 11 8
2248000 4 3 6 1 7 10 2 5 0 9 11 8
2249000 4 3 5 1 7 10 2 6 0 9 11 8
2250000 4 3 5 1 7 10 2 6 0 9 11 8
2251000 3 4 5 1 7 10 2 6 0 9 11 8
2252000 3 4 5 1 7 10 2 6 0 9 11 8
2253000 3 4 5 1 7 10 2 6 0 9 11 8
2254000 3 4 5 1 7 9 2 6 0 10 11 8
2255000 4 3 5 1 7 10 2 6 0 9 11 8
2256000 4 3 5 0 7 10 2 6 1 8 11 9
2257000 4 3 5 0 7 10 2 6 1 8 11 9
2258000 4 3 5 0 7 10 2 6 1 8 11 9
2259000 4 3 5 1 7 10 2 6 0 9 11 8
2260000 4 3 5 1 7 10 2 6 0 9 11 8
2261000 4 2 5 1 7 10 3 6 0 9 11 8
2262000 4 2 5 1 7 10 3 6 0 9 11 8
2263000 4 2 6 1 7 10 3 5 0 9 11 8
2264000 4 2 6 1 7 10 3 5 0 8 11 9
2265000 4 2 6 1 7 10 3 5 0 9 11 8
2266000 5 2 6 1 7 10 3 4 0 9 11 8
2267000 5 2 6 1 7 11 3 4 0 8 10 9
2268000 5 2 6 1 7 11 3 4 0 8 10 9
2269000 5 2 6 1 7 11 3 4 0 8 10 9
2270000 5 2 6 1 7 11 3 4 0 8 10 9
2271000 5 2 6 1 7 11 3 4 0 8 10 9
2272000 5 2 6 1 7 11 3 4 0 8 10 9
2273000 5 2 6 1 7 11 3 4 0 9 10 8
2274000 5 2 6 1 7 11 4 3 0 9 10 8
2275000 5 3 6 1 7 11 4 2 0 9 10 8
2276000 5 3 6 1 7 11 4 2 0 9 10 8
2277000 5 3 7 1 6 11 4 2 0 9 10 8
2278000 5 3 7 1 6 11 4 2 0 9 10 8
2279000 5 3 7 1 6 11 4 2 0 9 10 8
2280000 5 2 7 1 6 11 4 3 0 9 10 8
2281000 6 2 7 1 5 11 4 3 0 9 10 8
2282000 6 2 7 1 5 11 4 3 0 9 10 8
2283000 6 2 7 1 5 11 4 3 0 9 10 8
2284000 7 2 6 1 5 11 4 3 0 9 10 8
2285000 7 2 6 1 5 11 4 3 0 9 10 8
2286000 7 3 6 0 4 11 5 2 1 9 10 8
2287000 7 3 6 0 4 11 5 2 1 9 10 8
2288000 7 4 6 0 3 11 5 2 1 9 10 8
2289000 7 4 6 0 3 11 5 2 1 9 10 8
2290000 7 4 6 0 3 11 5 2 1 9 10 8
2291000 7 4 6 0 3 11 5 2 1 9 10 8
2292000 7 4 6 0 3 11 5 2 1 8 10 9
2293000 6 4 7 0 3 11 5 2 1 8 10 9
2294000 6 4 7 0 3 11 5 2 1 8 10 9
2295000 6 4 7 0 3 11 5 2 1 8 10 9
2296000 5 3 7 0 4 11 6 2 1 8 10 9
2297000 5 3 7 0 4 11 6 2 1 8 10 9
2298000 5 3 7 0 4 11 6 2 1 8 10 9
2299000 4 3 7 0 5 11 6 2 1 9 10 8
2300000 4 3 7 0 5 11 6 2 1 9 10 8
2301000 4 3 7 0 5 11 6 2 1 9 10 8
2302000 4 3 7 0 5 11 6 2 1 8 10 9
2303000 4 3 7 0 5 11 6 2 1 8 10 9
2304000 4 2 7 1 5 11 6 3 0 8 10 9
2305000 4 2 7 1 5 11 6 3 0 8 10 9
2306000 4 2 7 1 5 11 6 3 0 8 10 9
2307000 5 2 7 1 4 11 6 3 0 8 10 9
2308000 5 2 7 1 4 11 6 3 0 8 10 9
2309000 5 2 7 1 4 11 6 3 0 8 10 9
2310000 5 2 7 1 4 11 6 3 0 8 10 9
2311000 5 2 7 1 4 10 6 3 0 9 11 8
2312000 5 2 7 1 4 10 6 3 0 9 11 8
2313000 5 2 7 1 4 10 6 3 0 9 11 8
2314000 5 3 7 1 4 10 6 2 0 9 11 8
2315000 5 3 7 1 4 10 6 2 0 8 11 9
2316000 4 3 7 1 5 10 6 2 0 8 11 9
2317000 4 3 7 1 5 10 6 2 0 9 11 8
2318000 4 3 7 1 5 10 6 2 0 9 11 8
2319000 4 3 7 1 5 10 6 2 0 9 11 8
2320000 5 3 7 0 4 10 6 2 1 8 11 9
2321000 5 3 7 0 4 10 6 2 1 8 11 9
2322000 5 3 7 0 4 10 6 2 1 8 11 9
2323000 5 3 7 0 4 10 6 1 2 8 11 9
2324000 5 3 7 0 4 9 6 1 2 8 11 10
2325000 5 3 7 0 4 9 6 1 2 8 11 10
2326000 4 3 7 0 5 9 6 1 2 8 11 10
2327000 4 3 7 0 5 9 6 1 2 8 11 10
2328000 4 3 7 0 5 9 6 1 2 8 11 10
2329000 4 3 6 0 5 9 7 1 2 8 11 10
2330000 4 3 5 0 6 9 7 1 2 8 11 10
2331000 4 3 5 0 6 9 7 1 2 8 11 10
2332000 4 3 5 1 6 8 7 0 2 9 11 10
2333000 4 3 5 1 6 8 7 0 2 9 11 10
2334000 4 3 5 1 6 9 7 0 2 8 11 10
2335000 4 3 5 1 6 9 7 0 2 8 11 10
2336000 4 3 5 1 6 9 7 0 2 8 11 10
2337000 4 3 5 1 6 8 7 0 2 9 11 10
2338000 4 3 5 0 6 9 7 1 2 8 11 10
2339000 4 3 5 0 6 9 7 1 2 8 11 10
2340000 4 3 5 0 6 9 7 1 2 8 11 10
2341000 4 3 5 0 6 9 7 1 2 8 11 10
2342000 4 3 5 0 6 9 7 1 2 8 11 10
2343000 4 3 5 0 6 9 7 1 2 8 11 10
2344000 4 3 5 0 6 8 7 1 2 9 11 10
2345000 4 3 5 0 6 8 7 1 2 9 11 10
2346000 4 3 5 0 6 8 7 1 2 9 11 10
2347000 4 3 5 0 6 9 7 1 2 8 11 10
2348000 4 3 5 0 6 8 7 1 2 9 11 10
2349000 4 3 5 0 6 8 7 1 2 9 11 10
2350000 4 3 5 1 6 8 7 0 2 9 11 10
2351000 4 3 5 1 6 8 7 0 2 9 11 10
2352000 4 3 5 1 6 8 7 0 2 9 11 10
2353000 4 3 5 1 6 8 7 0 2 9 11 10
2354000 4 3 5 1 6 8 7 0 2 9 11 10
2355000 4 3 5 1 6 8 7 0 2 9 11 10
2356000 4 3 5 0 6 8 7 1 2 9 11 10
2357000 4 3 5 0 6 8 7 1 2 9 11 10
2358000 4 2 5 0 6 8 7 1 3 9 11 10
2359000 4 2 5 0 6 8 7 1 3 10 11 9
2360000 4 2 5 0 6 8 7 1 3 10 11 9
2361000 4 2 6 0 5 8 7 1 3 10 11 9
2362000 4 2 6 0 5 8 7 1 3 10 11 9
2363000 4 2 6 0 5 8 7 1 3 10 11 9
2364000 4 3 6 0 5 8 7 1 2 10 11 9
2365000 4 3 6 0 5 8 7 1 2 10 11 9
2366000 4 3 6 0 5 8 7 1 2 10 11 9
2367000 4 3 6 0 5 8 7 1 2 10 11 9
2368000 4 3 6 0 5 8 7 1 2 10 11 9
2369000 4 3 6 0 5 8 7 1 2 10 11 9
2370000 4 3 6 0 5 9 7 1 2 10 11 8
2371000 4 3 6 0 5 9 7 1 2 10 11 8
2372000 4 3 6 0 5 9 7 1 2 10 11 8
2373000 4 3 6 0 5 9 7 1 2 10 11 8
2374000 3 4 6 0 5 9 7 1 2 10 11 8
2375000 3 5 6 0 4 9 7 1 2 10 11 8
2376000 3 5 6 0 4 9 7 1 2 10 11 8
2377000 3 5 6 0 4 10 7 1 2 9 11 8
2378000 3 5 6 0 4 10 7 1 2 8 11 9
2379000 3 4 7 0 5 10 6 1 2 8 11 9
2380000 3 4 7 0 5 10 6 1 2 8 11 9
2381000 3 4 7 0 5 10 6 1 2 8 11 9
[...]
4413000 0 5 2 7 3 8 1 4 6 11 9 10
4414000 0 6 2 7 3 8 1 4 5 11 10 9
4415000 0 6 2 7 3 8 1 4 5 11 10 9
4416000 0 6 2 7 3 8 1 4 5 11 10 9
4417000 0 6 2 7 3 8 1 4 5 10 11 9
4418000 0 6 2 7 3 8 1 4 5 10 11 9
4419000 0 6 2 7 3 8 1 4 5 10 11 9
4420000 0 6 2 7 4 8 1 3 5 10 11 9
4421000 0 6 2 7 4 8 1 3 5 10 11 9
4422000 0 6 2 7 4 8 1 3 5 10 11 9
4423000 0 6 2 7 4 8 1 3 5 10 11 9
4424000 1 6 2 7 4 8 0 3 5 10 11 9
4425000 1 6 2 7 4 8 0 3 5 10 11 9
4426000 1 6 2 7 4 8 0 3 5 10 11 9
4427000 1 6 2 7 4 8 0 3 5 10 11 9
4428000 1 6 2 7 3 8 0 4 5 10 11 9
4429000 1 6 2 7 3 8 0 4 5 10 11 9
4430000 0 6 2 7 3 8 1 4 5 10 11 9
4431000 0 6 2 7 3 8 1 4 5 10 11 9
4432000 0 6 2 7 3 8 1 4 5 10 11 9
4433000 0 6 2 7 3 9 1 4 5 10 11 8
4434000 1 6 2 7 3 9 0 4 5 10 11 8
4435000 2 6 1 7 3 9 0 4 5 10 11 8
4436000 2 6 1 7 3 9 0 4 5 10 11 8
4437000 2 6 1 7 3 10 0 4 5 9 11 8
4438000 2 6 1 7 3 10 0 4 5 9 11 8
4439000 2 6 1 7 3 10 0 4 5 9 11 8
4440000 2 7 1 6 3 10 0 4 5 9 11 8
4441000 2 7 1 6 3 10 0 4 5 9 11 8
4442000 3 7 0 6 2 10 1 4 5 9 11 8
4443000 2 7 0 6 3 10 1 4 5 9 11 8
4444000 1 7 0 5 3 10 2 4 6 9 11 8
4445000 1 7 0 5 3 10 2 4 6 9 11 8
4446000 1 7 0 5 3 10 2 4 6 9 11 8
4447000 1 7 0 5 3 10 2 4 6 9 11 8
4448000 1 6 0 5 3 11 2 4 7 9 10 8
4449000 1 6 0 5 3 11 2 4 7 9 10 8
4450000 1 6 0 4 3 11 2 5 7 9 10 8
4451000 2 5 0 4 3 11 1 6 7 9 10 8
4452000 2 5 0 4 3 11 1 6 7 9 10 8
4453000 2 5 0 4 3 11 1 6 7 9 10 8
4454000 2 5 0 4 3 11 1 6 7 9 10 8
4455000 2 5 0 4 3 11 1 6 7 9 10 8
4456000 2 5 0 4 3 11 1 7 6 9 10 8
4457000 2 5 0 4 3 11 1 7 6 9 10 8
4458000 2 5 0 4 3 11 1 7 6 9 10 8
4459000 2 5 1 4 3 11 0 7 6 8 10 9
4460000 3 5 1 4 2 11 0 7 6 8 10 9
4461000 3 5 1 4 2 11 0 7 6 9 10 8
4462000 3 5 1 4 2 11 0 7 6 9 10 8
4463000 3 5 1 4 2 11 0 7 6 9 10 8
4464000 3 5 1 4 2 11 0 7 6 9 10 8
4465000 3 5 1 4 2 11 0 7 6 8 10 9
4466000 3 5 1 4 2 11 0 7 6 8 10 9
4467000 3 5 1 4 2 11 0 7 6 8 10 9
4468000 3 5 1 4 2 11 0 7 6 8 9 10
4469000 3 5 1 4 2 11 0 7 6 8 9 10
4470000 3 5 1 4 2 11 0 6 7 8 9 10
4471000 3 5 1 4 2 11 0 6 7 8 9 10
4472000 3 5 1 4 2 11 0 6 7 8 9 10
4473000 4 5 1 3 2 11 0 6 7 8 9 10
4474000 4 5 1 3 2 11 0 7 6 8 9 10
4475000 4 5 1 3 2 11 0 7 6 8 9 10
4476000 4 5 1 2 3 11 0 7 6 8 9 10
4477000 4 5 1 2 3 11 0 7 6 9 8 10
4478000 3 5 1 2 4 11 0 7 6 9 8 10
4479000 3 5 1 2 4 11 0 7 6 9 8 10
4480000 3 5 1 2 4 11 0 7 6 9 8 10
4481000 4 5 1 2 3 11 0 7 6 10 8 9
4482000 3 6 1 2 4 11 0 7 5 10 8 9
4483000 3 6 1 2 4 11 0 7 5 9 8 10
4484000 2 6 1 3 4 11 0 7 5 8 9 10
4485000 2 6 1 3 4 11 0 7 5 8 10 9
4486000 2 6 1 3 4 11 0 7 5 9 10 8
4487000 2 6 1 3 4 11 0 7 5 9 10 8
4488000 2 6 1 3 4 11 0 7 5 9 10 8
4489000 2 6 1 3 4 11 0 7 5 9 10 8
4490000 2 6 1 3 5 10 0 7 4 8 11 9
4491000 2 6 1 3 5 11 0 7 4 9 10 8
4492000 2 6 1 3 5 11 0 7 4 9 10 8
4493000 2 6 1 3 5 11 0 7 4 9 10 8
4494000 2 6 1 3 5 11 0 7 4 8 10 9
4495000 2 6 1 3 5 11 0 7 4 8 10 9
4496000 3 6 1 2 5 11 0 7 4 8 10 9
4497000 3 6 1 2 5 11 0 7 4 8 10 9
4498000 3 6 1 2 5 11 0 7 4 8 10 9
4499000 3 6 1 2 5 11 0 7 4 8 10 9
4500000 3 6 1 2 5 11 0 7 4 8 10 9
4501000 3 7 1 2 5 11 0 6 4 8 10 9
4502000 3 7 1 2 5 11 0 6 4 8 10 9
4503000 3 7 1 2 5 11 0 6 4 8 10 9
4504000 3 7 1 2 5 11 0 6 4 8 10 9
4505000 3 7 1 2 5 11 0 6 4 8 10 9
4506000 3 7 1 2 4 11 0 6 5 8 10 9
4507000 3 7 1 2 4 11 0 6 5 8 10 9
4508000 3 7 1 2 4 11 0 6 5 8 10 9
4509000 3 7 0 2 4 11 1 6 5 8 10 9
4510000 2 7 0 3 4 11 1 6 5 8 10 9
4511000 2 7 0 3 4 11 1 6 5 8 10 9
4512000 2 6 0 3 4 11 1 7 5 8 10 9
4513000 2 6 0 3 4 11 1 7 5 9 10 8
4514000 2 6 0 3 4 11 1 7 5 9 10 8
4515000 2 6 0 3 4 11 1 7 5 9 10 8
4516000 1 6 0 3 4 11 2 7 5 9 10 8
4517000 1 6 0 3 4 11 2 7 5 8 10 9
4518000 2 6 0 3 4 11 1 7 5 8 10 9
4519000 1 6 0 4 3 11 2 7 5 8 10 9
4520000 1 6 0 4 3 11 2 7 5 9 10 8
4521000 1 6 0 4 3 11 2 7 5 9 10 8
4522000 1 6 0 4 3 11 2 7 5 10 9 8
4523000 1 6 0 4 3 11 2 7 5 10 9 8
4524000 1 6 0 5 3 11 2 7 4 10 8 9
4525000 1 6 0 5 3 11 2 7 4 10 8 9
4526000 1 6 0 4 3 11 2 7 5 10 8 9
4527000 1 6 0 4 3 11 2 7 5 10 8 9
4528000 1 6 0 4 3 11 2 7 5 10 8 9
4529000 1 6 0 3 4 11 2 7 5 10 8 9
4530000 1 6 0 2 4 11 3 7 5 10 9 8
4531000 1 6 0 2 4 11 3 7 5 10 9 8
4532000 1 5 0 2 4 11 3 7 6 10 9 8
4533000 2 5 0 1 4 11 3 7 6 10 9 8
4534000 2 5 0 1 4 11 3 7 6 10 9 8
4535000 2 5 0 1 4 11 3 7 6 10 9 8
4536000 2 5 0 1 3 11 4 7 6 10 9 8
4537000 2 5 0 1 3 11 4 7 6 9 10 8
4538000 2 5 0 1 3 11 4 7 6 10 9 8
4539000 2 5 0 1 3 11 4 7 6 10 9 8
4540000 2 5 0 1 3 11 4 7 6 10 9 8
4541000 2 5 0 1 3 11 4 7 6 10 8 9
4542000 2 5 0 1 3 11 4 7 6 10 8 9
4543000 2 5 0 1 3 11 4 7 6 10 8 9
4544000 2 5 0 1 3 11 4 7 6 10 8 9
4545000 2 5 0 1 3 11 4 7 6 10 9 8
4546000 2 5 0 1 3 11 4 7 6 10 9 8
4547000 2 5 0 1 3 11 4 7 6 10 9 8
4548000 2 5 0 1 3 11 4 7 6 10 9 8
4549000 2 5 1 0 3 11 4 7 6 10 8 9
4550000 2 5 1 0 3 11 4 7 6 10 8 9
4551000 2 4 1 0 3 11 5 7 6 10 8 9
4552000 2 4 0 1 3 11 5 6 7 10 8 9
4553000 2 4 0 1 3 11 6 5 7 10 8 9
4554000 2 4 0 1 3 11 6 5 7 10 8 9
4555000 2 4 0 1 3 11 6 5 7 10 8 9
4556000 2 4 0 1 3 10 7 5 6 11 8 9
4557000 2 4 0 1 3 10 7 5 6 11 8 9
4558000 2 4 0 1 3 10 7 5 6 11 8 9
4559000 2 3 0 1 4 10 7 5 6 11 8 9
4560000 2 3 0 1 4 10 7 5 6 11 8 9
4561000 2 3 0 1 4 10 7 5 6 11 8 9
4562000 2 3 0 1 4 10 7 5 6 11 8 9
4563000 2 3 0 1 4 10 7 5 6 11 8 9
4564000 2 3 0 1 4 10 7 5 6 11 8 9
4565000 2 3 0 1 4 10 7 5 6 11 8 9
4566000 2 3 0 1 4 10 7 5 6 11 8 9
4567000 2 3 0 1 4 10 7 5 6 11 8 9
4568000 3 2 1 0 4 10 7 5 6 11 9 8
4569000 3 2 1 0 4 10 7 5 6 11 9 8
4570000 3 2 1 0 4 10 7 5 6 11 9 8
4571000 2 3 1 0 5 10 7 4 6 11 8 9
4572000 2 3 1 0 5 10 7 4 6 11 8 9
4573000 2 3 1 0 5 10 7 4 6 11 8 9
4574000 2 3 1 0 5 10 7 4 6 11 8 9
4575000 2 3 1 0 5 10 7 4 6 11 9 8
4576000 2 3 1 0 5 10 7 4 6 11 9 8
4577000 2 3 1 0 5 10 7 4 6 11 9 8
4578000 2 3 1 0 5 10 7 4 6 11 9 8
4579000 2 3 1 0 4 10 7 5 6 11 9 8
4580000 2 3 1 0 4 10 7 5 6 11 9 8
4581000 1 3 2 0 4 10 7 5 6 11 9 8
4582000 1 3 2 0 4 10 7 5 6 11 9 8
4583000 1 3 2 0 4 10 7 5 6 11 9 8
4584000 1 3 2 0 4 10 7 5 6 11 9 8
4585000 1 3 2 0 4 10 7 5 6 11 9 8
4586000 1 4 2 0 3 10 7 5 6 11 9 8
4587000 1 4 2 0 3 10 7 5 6 11 9 8
4588000 1 3 2 0 4 10 7 5 6 11 9 8
4589000 1 3 2 0 4 10 7 6 5 11 9 8
4590000 1 3 2 0 4 10 7 6 5 11 9 8
4591000 1 3 2 0 4 10 7 5 6 11 9 8
4592000 1 3 2 0 4 10 7 5 6 11 9 8
4593000 1 3 2 0 4 10 7 5 6 11 9 8
4594000 1 3 2 0 4 10 7 5 6 11 9 8
4595000 1 3 2 0 4 10 7 5 6 11 9 8
4596000 0 3 2 1 4 10 7 5 6 11 9 8
4597000 0 3 2 1 4 10 7 5 6 11 9 8
4598000 0 3 2 1 4 10 7 5 6 11 9 8
4599000 0 3 2 1 4 10 7 5 6 11 9 8
4600000 0 3 2 1 4 11 7 5 6 10 8 9
4601000 0 3 2 1 4 11 7 5 6 10 8 9
4602000 0 3 2 1 4 10 7 5 6 11 9 8
4603000 0 2 3 1 4 10 7 5 6 11 8 9
4604000 0 2 3 1 4 9 7 5 6 11 8 10
4605000 0 2 3 1 4 9 7 5 6 11 8 10
4606000 0 2 3 1 4 9 7 5 6 11 8 10
4607000 0 2 3 1 4 9 7 5 6 11 8 10
4608000 0 1 3 2 4 10 7 5 6 11 8 9
4609000 0 1 3 2 4 10 7 5 6 11 8 9
4610000 0 1 3 2 4 10 7 5 6 11 8 9
4611000 0 1 3 2 4 10 7 5 6 11 8 9
4612000 0 1 3 2 4 10 7 5 6 11 8 9
4613000 0 1 3 2 4 10 7 5 6 11 8 9
4614000 0 1 4 2 3 9 7 5 6 11 8 10
4615000 0 1 4 2 3 9 7 5 6 11 8 10
4616000 0 1 4 2 3 9 7 5 6 11 8 10
4617000 0 1 4 2 3 9 7 6 5 11 8 10
4618000 0 1 4 2 3 9 7 6 5 11 8 10
4619000 0 1 4 2 3 8 7 6 5 11 9 10
4620000 0 1 4 2 3 8 7 6 5 11 9 10
4621000 0 1 4 2 3 8 7 6 5 11 9 10
4622000 0 1 4 2 3 8 7 6 5 11 9 10
4623000 0 2 4 1 3 8 7 6 5 11 9 10
4624000 0 1 4 2 3 8 7 5 6 11 9 10
4625000 0 1 4 2 3 8 7 5 6 11 9 10
4626000 0 1 4 2 3 8 7 5 6 11 9 10
4627000 0 1 4 2 3 8 7 5 6 11 9 10
4628000 0 1 4 2 3 8 7 5 6 11 9 10
4629000 0 1 4 2 3 8 7 5 6 11 9 10
4630000 0 1 4 2 3 8 7 5 6 11 9 10
4631000 0 1 4 2 3 8 7 5 6 11 9 10
4632000 0 1 4 2 3 8 7 5 6 11 9 10
4633000 0 1 4 2 3 8 7 5 6 11 9 10
4634000 0 1 5 2 3 8 7 4 6 11 9 10
4635000 0 1 6 2 3 8 7 4 5 11 9 10
4636000 0 1 6 2 3 8 7 4 5 11 9 10
4637000 0 1 6 2 3 8 7 4 5 11 9 10
4638000 0 1 6 2 3 8 7 4 5 11 9 10
4639000 0 1 6 2 3 8 7 4 5 11 9 10
4640000 0 1 6 2 4 8 7 3 5 11 9 10
4641000 0 1 6 2 4 8 7 3 5 11 9 10
4642000 1 0 6 3 4 8 7 2 5 11 9 10
4643000 1 0 6 3 4 8 7 2 5 11 9 10
4644000 1 0 6 3 4 8 7 2 5 11 9 10
4645000 1 0 6 3 4 8 7 2 5 11 9 10
4646000 1 0 6 3 4 8 7 2 5 11 9 10
4647000 1 0 5 3 4 8 7 2 6 11 9 10
4648000 1 0 5 3 4 8 7 2 6 11 10 9
4649000 1 0 5 3 4 8 7 2 6 11 10 9
4650000 1 0 5 3 4 8 7 2 6 11 10 9
4651000 1 0 5 3 4 8 7 2 6 11 10 9
4652000 1 0 5 3 4 8 7 2 6 11 9 10
4653000 1 0 5 3 4 8 7 2 6 11 9 10
4654000 1 0 5 3 4 8 7 2 6 11 10 9
4655000 1 0 5 2 4 8 7 3 6 10 11 9
4656000 1 0 5 2 3 8 7 4 6 10 11 9
4657000 1 0 5 2 3 8 7 4 6 10 11 9
4658000 1 0 6 2 3 8 7 4 5 9 11 10
4659000 1 0 6 2 3 8 7 4 5 9 11 10
4660000 1 0 6 2 3 8 7 4 5 9 10 11
4661000 1 0 6 2 3 8 7 4 5 9 10 11
4662000 1 0 6 2 3 8 7 4 5 10 9 11
4663000 0 1 6 2 3 8 7 4 5 11 9 10
4664000 0 1 6 2 3 9 7 4 5 11 8 10
4665000 0 1 6 2 3 9 7 4 5 11 8 10
4666000 1 0 7 2 3 8 6 4 5 11 9 10
4667000 1 0 7 2 3 8 6 4 5 11 9 10
4668000 1 0 7 2 3 8 6 4 5 11 9 10
4669000 2 0 7 1 4 8 6 3 5 11 10 9
4670000 2 0 7 1 4 9 6 3 5 11 10 8
4671000 2 0 7 1 4 9 6 3 5 11 10 8
4672000 2 0 7 1 4 9 6 3 5 11 10 8
4673000 2 0 7 1 4 9 6 3 5 11 10 8
4674000 2 0 7 1 4 10 6 3 5 11 9 8
4675000 2 0 7 1 4 10 6 3 5 11 9 8
4676000 2 0 7 1 4 10 5 3 6 11 9 8
4677000 2 0 7 1 4 10 5 3 6 11 9 8
4678000 2 0 7 1 4 10 5 3 6 11 8 9
4679000 2 0 7 1 4 10 5 3 6 11 8 9
4680000 2 0 7 1 4 10 5 3 6 11 8 9
4681000 2 0 7 1 4 10 5 3 6 11 9 8
4682000 2 1 7 0 4 10 5 3 6 11 8 9
4683000 2 1 7 0 4 10 5 3 6 11 8 9
4684000 2 1 7 0 4 11 5 3 6 10 9 8
4685000 2 1 7 0 4 11 5 3 6 10 9 8
4686000 2 1 7 0 4 11 5 3 6 10 9 8
4687000 2 1 7 0 4 10 5 3 6 11 9 8
4688000 2 1 7 0 5 10 4 3 6 11 9 8
4689000 1 2 7 0 5 10 4 3 6 11 9 8
4690000 1 2 7 0 5 10 4 3 6 11 9 8
4691000 1 2 7 0 5 10 4 3 6 11 9 8
4692000 1 2 7 0 5 10 4 3 6 11 9 8
4693000 1 2 7 0 5 10 4 3 6 11 9 8
4694000 0 2 7 1 5 10 4 3 6 11 8 9
4695000 0 2 7 1 5 10 4 3 6 11 8 9
4696000 0 2 7 1 5 10 4 3 6 11 8 9
4697000 1 2 7 0 5 10 4 3 6 11 8 9
4698000 1 2 7 0 5 10 4 3 6 11 8 9
4699000 1 2 7 0 5 10 4 3 6 11 8 9
4700000 1 2 6 0 4 10 5 3 7 11 8 9
4701000 1 2 6 0 4 10 5 3 7 11 8 9
4702000 1 3 7 0 4 10 5 2 6 11 8 9
4703000 1 3 7 0 4 10 5 2 6 11 8 9
4704000 0 3 6 1 4 10 5 2 7 11 8 9
4705000 0 3 6 1 4 10 5 2 7 11 8 9
4706000 0 2 6 1 4 10 5 3 7 11 9 8
4707000 0 2 6 1 4 9 5 3 7 11 10 8
4708000 0 2 6 1 4 9 5 3 7 11 10 8
4709000 0 2 5 1 4 10 6 3 7 11 9 8
4710000 0 2 5 1 4 10 6 3 7 11 9 8
4711000 0 3 5 1 4 10 6 2 7 11 8 9
4712000 0 3 5 1 4 10 6 2 7 11 8 9
4713000 0 3 5 1 4 11 6 2 7 10 8 9
4714000 0 3 5 1 4 10 6 2 7 11 8 9
4715000 0 3 5 1 4 10 6 2 7 11 8 9
4716000 1 3 5 0 4 10 6 2 7 11 8 9
4717000 1 3 5 0 4 10 6 2 7 11 8 9
4718000 1 3 5 0 4 10 6 2 7 11 9 8
4719000 1 3 5 0 4 10 6 2 7 11 9 8
4720000 1 3 5 0 4 10 6 2 7 11 9 8
4721000 0 3 5 1 4 10 6 2 7 11 8 9
4722000 1 3 5 0 4 10 6 2 7 11 8 9
4723000 1 3 5 0 4 10 6 2 7 11 8 9
4724000 1 3 4 0 5 10 6 2 7 11 8 9
4725000 1 3 4 0 5 11 6 2 7 10 9 8
4726000 0 3 4 1 5 11 6 2 7 10 9 8
4727000 0 3 4 1 5 11 6 2 7 10 9 8
4728000 0 3 4 1 5 11 6 2 7 10 9 8
4729000 1 3 4 0 5 10 6 2 7 11 9 8
4730000 1 3 4 0 5 10 6 2 7 11 9 8
4731000 1 2 4 0 5 11 6 3 7 10 8 9
4732000 1 2 4 0 5 11 6 3 7 10 9 8
4733000 1 2 4 0 5 11 6 3 7 10 9 8
4734000 1 2 4 0 5 11 6 3 7 10 8 9
4735000 0 2 4 1 5 10 6 3 7 11 8 9
4736000 0 2 4 1 5 10 6 3 7 11 8 9
4737000 0 2 4 1 6 10 5 3 7 11 8 9
4738000 0 2 4 1 6 10 5 3 7 11 8 9
4739000 0 2 4 1 6 10 5 3 7 11 8 9
4740000 0 2 4 1 6 10 5 3 7 11 8 9
4741000 0 2 4 1 6 10 5 3 7 11 9 8
4742000 0 2 3 1 6 10 5 4 7 11 9 8
4743000 0 2 3 1 6 10 5 4 7 11 9 8
4744000 0 2 3 1 6 10 5 4 7 11 9 8
4745000 0 2 3 1 6 10 5 4 7 11 9 8
4746000 0 2 3 1 6 11 5 4 7 10 9 8
4747000 0 2 3 1 6 11 5 4 7 10 9 8
4748000 0 2 3 1 6 11 5 4 7 10 9 8
4749000 0 2 3 1 6 11 5 4 7 10 9 8
4750000 0 2 3 1 7 11 5 4 6 10 8 9
4751000 0 2 3 1 7 10 5 4 6 11 9 8
4752000 0 2 3 1 7 10 6 4 5 11 9 8
4753000 1 2 3 0 7 10 6 4 5 11 8 9
4754000 0 2 3 1 7 10 6 4 5 11 9 8
4755000 0 2 3 1 7 10 6 4 5 11 9 8
4756000 0 2 3 1 7 10 6 4 5 11 9 8
4757000 0 2 3 1 7 10 6 4 5 11 9 8
4758000 0 2 3 1 7 10 6 4 5 11 9 8
4759000 0 2 4 1 7 10 6 3 5 11 9 8
4760000 0 2 4 1 7 10 6 3 5 11 9 8
4761000 0 2 4 1 7 10 6 3 5 11 9 8
4762000 0 2 4 1 7 10 6 3 5 11 9 8
4763000 0 2 4 1 6 10 7 3 5 11 9 8
4764000 0 2 4 1 6 10 7 3 5 11 9 8
4765000 0 1 4 2 6 10 7 3 5 11 9 8
4766000 0 1 4 2 7 10 6 3 5 11 9 8
4767000 0 1 4 2 7 10 6 3 5 11 9 8
4768000 0 1 4 2 7 10 6 3 5 11 9 8
4769000 0 1 4 2 7 10 6 3 5 11 9 8
4770000 0 1 4 2 7 10 6 3 5 11 9 8
4771000 0 1 4 2 7 10 6 3 5 11 9 8
4772000 0 1 3 2 7 10 6 4 5 11 9 8
4773000 0 1 3 2 7 10 6 4 5 11 9 8
4774000 0 1 3 2 7 10 6 4 5 11 9 8
4775000 0 1 3 2 7 10 6 4 5 11 9 8
4776000 0 1 3 2 7 10 6 4 5 11 9 8
4777000 0 1 2 3 7 10 6 4 5 11 9 8
4778000 0 1 2 3 7 10 6 4 5 11 9 8
4779000 0 1 2 3 7 10 6 4 5 11 9 8
4780000 0 1 2 3 7 10 6 4 5 11 9 8
4781000 0 1 2 3 7 10 6 4 5 11 9 8
4782000 0 1 2 3 7 10 6 4 5 11 9 8
4783000 0 1 2 3 7 10 6 4 5 11 9 8
4784000 0 1 2 3 7 10 6 4 5 11 9 8
4785000 0 1 2 3 7 10 6 4 5 11 9 8
4786000 0 1 2 3 7 10 6 4 5 11 9 8
4787000 1 0 3 2 7 11 6 4 5 10 9 8
4788000 1 0 3 2 7 11 6 4 5 10 9 8
4789000 1 0 3 2 7 11 5 4 6 10 9 8
4790000 0 1 3 2 7 10 5 4 6 11 9 8
4791000 0 1 3 2 7 10 5 4 6 11 9 8
4792000 0 1 3 2 7 10 5 4 6 11 9 8
4793000 1 0 3 2 7 10 4 5 6 11 9 8
4794000 1 0 3 2 7 10 4 5 6 11 9 8
4795000 1 0 3 2 7 10 4 5 6 11 9 8
4796000 1 0 3 2 7 10 4 5 6 11 9 8
4797000 1 0 3 2 7 10 4 5 6 11 9 8
4798000 1 0 3 2 7 10 4 5 6 11 9 8
4799000 1 0 3 2 6 11 4 5 7 10 9 8
4800000 1 0 3 2 6 11 4 5 7 10 9 8
4801000 1 0 3 2 6 11 4 5 7 10 9 8
4802000 1 0 3 2 6 11 4 5 7 10 9 8
4803000 1 0 3 2 7 11 4 5 6 10 9 8
4804000 1 0 3 2 7 11 4 5 6 10 8 9
4805000 1 0 4 2 7 11 3 5 6 10 8 9
4806000 1 0 4 2 7 11 3 6 5 9 8 10
4807000 1 0 4 2 7 11 3 6 5 9 8 10
4808000 1 0 4 2 7 11 3 6 5 9 8 10
4809000 1 0 3 2 7 11 4 6 5 9 8 10
4810000 1 0 3 2 7 11 4 6 5 9 8 10
4811000 1 0 2 3 7 11 5 6 4 9 8 10
4812000 1 0 2 3 7 11 5 6 4 10 8 9
4813000 1 0 2 3 7 11 5 6 4 10 8 9
4814000 1 0 2 3 7 11 5 6 4 10 8 9
4815000 1 0 2 3 7 11 5 6 4 10 8 9
4816000 1 0 2 3 7 10 5 6 4 11 8 9
4817000 1 0 2 3 7 10 5 6 4 11 8 9
4818000 1 0 2 3 7 10 5 6 4 11 8 9
4819000 1 0 2 3 7 10 5 6 4 11 8 9
4820000 1 0 2 3 7 10 5 6 4 11 8 9
4821000 1 0 2 3 7 10 5 6 4 11 8 9
4822000 1 0 2 3 7 10 5 6 4 11 9 8
4823000 2 0 1 3 7 10 5 6 4 11 9 8
4824000 2 1 0 3 7 10 5 6 4 11 8 9
4825000 2 1 0 3 7 10 6 5 4 11 8 9
4826000 2 1 0 3 7 10 6 5 4 11 8 9
4827000 2 1 0 3 7 10 6 4 5 11 8 9
4828000 2 1 0 3 7 11 6 4 5 10 8 9
4829000 3 1 0 2 7 11 6 4 5 10 8 9
4830000 3 1 0 2 7 11 6 4 5 10 8 9
4831000 3 1 0 2 7 11 6 4 5 10 8 9
4832000 3 1 0 2 7 11 6 4 5 10 9 8
4833000 3 0 1 2 7 11 6 4 5 10 9 8
4834000 3 0 1 2 7 11 6 4 5 9 10 8
4835000 3 0 1 2 7 11 5 4 6 10 9 8
4836000 3 0 2 1 7 11 5 4 6 10 9 8
4837000 3 0 2 1 7 11 6 4 5 10 9 8
4838000 3 0 2 1 7 11 6 4 5 10 8 9
4839000 3 0 2 1 7 11 6 5 4 10 9 8
4840000 3 0 2 1 7 11 6 5 4 10 9 8
4841000 2 0 3 1 7 11 6 5 4 10 9 8
4842000 2 0 3 1 7 11 6 5 4 10 8 9
4843000 2 0 3 1 6 11 7 5 4 10 8 9
4844000 3 0 2 1 6 11 7 5 4 10 8 9
4845000 3 0 2 1 6 11 7 5 4 10 8 9
4846000 3 0 2 1 6 11 7 5 4 10 8 9
4847000 3 0 2 1 6 11 7 5 4 10 8 9
4848000 3 0 2 1 6 11 7 5 4 10 8 9
4849000 3 0 1 2 5 11 7 6 4 9 8 10
4850000 3 0 1 2 5 11 7 6 4 9 8 10
4851000 4 0 1 2 5 11 7 6 3 10 8 9
4852000 4 0 1 2 5 11 7 6 3 10 8 9
4853000 4 0 1 2 5 11 7 6 3 9 8 10
4854000 4 0 1 2 5 11 7 6 3 9 8 10
4855000 4 0 1 2 5 11 7 6 3 8 9 10
4856000 4 0 1 2 5 11 7 6 3 8 9 10
4857000 4 0 1 2 5 11 7 6 3 9 8 10
4858000 4 0 1 2 5 11 7 6 3 9 8 10
4859000 4 0 1 2 5 11 7 6 3 9 8 10
4860000 4 0 1 2 5 11 6 7 3 9 8 10
4861000 4 0 1 2 5 11 6 7 3 9 8 10
4862000 4 0 1 2 5 11 6 7 3 9 8 10
4863000 4 0 1 3 5 11 6 7 2 9 8 10
4864000 4 0 1 2 5 11 7 6 3 9 8 10
4865000 4 0 2 1 5 11 7 6 3 9 8 10
4866000 4 0 2 1 5 11 6 7 3 9 8 10
4867000 4 0 2 1 5 11 6 7 3 9 8 10
4868000 4 0 2 1 5 11 6 7 3 9 8 10
4869000 4 0 2 1 5 11 6 7 3 10 8 9
4870000 4 0 2 1 5 11 6 7 3 10 8 9
4871000 4 0 2 1 5 11 6 7 3 10 8 9
4872000 4 0 2 1 5 11 6 7 3 10 8 9
4873000 4 0 2 1 5 11 6 7 3 10 8 9
4874000 4 0 2 1 5 11 6 7 3 10 8 9
4875000 4 0 2 1 5 11 6 7 3 10 8 9
4876000 4 0 2 1 5 11 6 7 3 10 8 9
4877000 4 0 2 1 5 11 6 7 3 10 8 9
4878000 4 0 1 2 5 11 6 7 3 9 8 10
4879000 4 0 1 2 5 11 6 7 3 9 8 10
4880000 4 0 1 2 5 11 6 7 3 10 8 9
4881000 4 0 1 2 5 11 6 7 3 10 8 9
4882000 4 0 1 2 5 11 6 7 3 10 8 9
4883000 4 0 1 2 5 11 6 7 3 10 8 9
4884000 4 0 1 2 5 11 6 7 3 10 8 9
4885000 4 0 1 2 5 11 6 7 3 10 9 8
4886000 4 0 1 2 5 11 6 7 3 10 8 9
4887000 4 0 1 2 5 11 6 7 3 10 8 9
4888000 5 0 1 2 4 11 6 7 3 10 8 9
4889000 5 0 1 2 4 11 6 7 3 10 8 9
4890000 5 0 1 2 4 11 6 7 3 10 8 9
4891000 5 0 1 2 4 11 6 7 3 10 8 9
4892000 5 0 2 1 4 11 6 7 3 10 8 9
4893000 5 0 2 1 4 11 6 7 3 10 8 9
4894000 5 0 2 1 3 11 6 7 4 10 8 9
4895000 5 0 2 1 3 11 6 7 4 10 8 9
4896000 5 0 1 2 3 11 6 7 4 10 8 9
4897000 5 0 1 2 4 11 6 7 3 10 8 9
4898000 5 0 1 2 4 11 6 7 3 10 8 9
4899000 5 0 1 2 4 11 6 7 3 10 8 9
4900000 5 1 0 2 4 11 6 7 3 10 8 9
4901000 5 1 0 2 4 11 6 7 3 10 8 9
4902000 5 1 0 2 4 10 6 7 3 11 8 9
4903000 5 1 0 2 3 10 6 7 4 11 8 9
4904000 5 1 0 2 3 10 6 7 4 11 8 9
4905000 5 0 1 2 3 10 6 7 4 11 8 9
4906000 5 0 1 2 3 10 6 7 4 11 8 9
4907000 5 1 0 2 3 10 6 7 4 11 8 9
4908000 5 1 0 2 3 10 6 7 4 11 8 9
4909000 5 1 0 2 3 10 6 7 4 11 8 9
4910000 5 2 0 1 3 9 6 7 4 11 8 10
4911000 5 2 0 1 4 9 6 7 3 11 8 10
4912000 5 2 0 1 4 9 6 7 3 11 8 10
4913000 5 2 0 1 4 10 6 7 3 11 8 9
4914000 5 2 0 1 4 11 6 7 3 10 8 9
4915000 5 2 0 1 4 11 6 7 3 10 8 9
4916000 5 2 1 0 4 10 6 7 3 11 8 9
4917000 5 2 1 0 4 10 6 7 3 11 8 9
4918000 5 2 1 0 3 10 6 7 4 11 8 9
4919000 5 2 1 0 3 10 6 7 4 11 8 9
4920000 5 2 1 0 3 10 6 7 4 11 9 8
4921000 5 3 1 0 2 10 6 7 4 11 9 8
4922000 5 3 1 0 2 10 6 7 4 11 8 9
4923000 5 4 1 0 2 10 6 7 3 11 8 9
4924000 5 4 1 0 2 9 6 7 3 11 8 10
4925000 5 4 1 0 2 9 6 7 3 11 8 10
4926000 5 4 1 0 2 10 6 7 3 11 8 9
4927000 5 4 1 0 2 10 7 6 3 11 8 9
4928000 5 4 1 0 2 10 7 6 3 11 8 9
4929000 5 4 1 0 2 10 7 6 3 11 8 9
4930000 5 4 1 0 2 10 7 6 3 11 8 9
4931000 5 4 1 0 2 10 7 6 3 11 8 9
4932000 5 4 1 0 2 10 7 6 3 11 8 9
4933000 5 4 1 0 2 11 7 6 3 10 8 9
4934000 5 4 1 0 2 11 7 6 3 10 9 8
4935000 5 4 1 0 2 10 7 6 3 11 9 8
4936000 5 4 1 0 2 11 7 6 3 10 9 8
4937000 5 4 1 0 2 11 7 6 3 9 10 8
4938000 5 4 1 0 2 11 7 6 3 10 9 8
4939000 5 4 1 0 2 11 7 6 3 9 10 8
4940000 5 4 1 0 2 11 7 6 3 9 10 8
4941000 5 4 1 0 2 11 7 6 3 10 9 8
4942000 5 3 1 0 2 11 7 6 4 10 9 8
4943000 5 3 1 0 2 11 7 6 4 10 9 8
4944000 5 3 1 0 2 11 7 6 4 10 9 8
4945000 5 3 1 0 2 11 7 6 4 10 9 8
4946000 5 3 1 0 2 11 7 6 4 10 8 9
4947000 5 3 1 0 2 11 7 6 4 10 8 9
4948000 5 3 1 0 2 11 7 6 4 10 8 9
4949000 6 3 1 0 2 11 7 5 4 10 8 9
4950000 6 3 1 0 2 10 7 5 4 11 8 9
4951000 6 3 1 0 2 10 7 5 4 11 8 9
4952000 5 3 1 0 2 10 7 6 4 11 8 9
4953000 4 3 1 0 2 10 7 6 5 11 8 9
4954000 4 3 1 0 2 10 7 6 5 11 8 9
4955000 4 3 1 0 2 10 7 6 5 11 8 9
4956000 4 3 1 0 2 10 7 6 5 11 8 9
4957000 5 3 1 0 2 10 6 7 4 11 9 8
4958000 5 3 1 0 2 10 6 7 4 11 8 9
4959000 5 3 1 0 2 10 6 7 4 11 8 9
4960000 5 2 1 0 3 10 7 6 4 11 8 9
4961000 5 2 1 0 3 10 7 6 4 11 8 9
4962000 4 3 1 0 2 10 7 6 5 11 8 9
4963000 4 3 1 0 2 10 6 7 5 11 8 9
4964000 4 3 1 0 2 10 6 7 5 11 8 9
4965000 4 3 1 0 2 10 6 7 5 11 9 8
4966000 4 3 1 0 2 10 6 7 5 11 9 8
4967000 4 3 1 0 2 10 6 7 5 11 9 8
4968000 4 3 1 0 2 10 6 7 5 11 9 8
4969000 4 3 1 0 2 10 6 7 5 11 9 8
4970000 4 3 1 0 2 10 6 7 5 11 8 9
4971000 4 3 1 0 2 10 6 7 5 11 8 9
4972000 4 3 2 0 1 9 6 7 5 11 8 10
4973000 4 3 2 0 1 9 6 7 5 11 8 10
4974000 4 3 2 1 0 9 6 7 5 11 8 10
4975000 3 4 2 1 0 9 6 7 5 11 8 10
4976000 4 3 1 2 0 9 6 7 5 11 8 10
4977000 4 3 1 2 0 9 6 7 5 11 8 10
4978000 4 3 1 2 0 9 6 7 5 11 8 10
4979000 5 3 1 2 0 8 6 7 4 11 9 10
4980000 5 3 1 2 0 8 6 7 4 11 10 9
4981000 5 3 1 2 0 8 6 7 4 11 10 9
4982000 5 3 1 2 0 8 6 7 4 11 10 9
4983000 5 3 1 2 0 9 6 7 4 11 10 8
4984000 5 3 1 2 0 10 6 7 4 11 9 8
4985000 5 3 1 2 0 10 6 7 4 11 9 8
4986000 5 3 1 2 0 10 6 7 4 11 8 9
4987000 5 3 1 2 0 9 6 7 4 11 8 10
4988000 5 3 0 2 1 9 6 7 4 11 8 10
4989000 5 3 0 2 1 10 6 7 4 11 8 9
4990000 5 3 0 2 1 10 6 7 4 11 9 8
4991000 5 2 1 3 0 10 6 7 4 11 9 8
4992000 5 2 1 3 0 10 6 7 4 11 8 9
4993000 5 2 1 3 0 10 6 7 4 11 8 9
4994000 5 2 1 3 0 10 6 7 4 11 8 9
4995000 5 2 1 3 0 10 6 7 4 11 8 9
4996000 5 2 1 3 0 9 6 7 4 11 8 10
4997000 5 2 1 3 0 9 6 7 4 11 8 10
4998000 5 2 1 3 0 10 6 7 4 11 8 9
4999000 5 2 1 3 0 10 6 7 4 11 8 9
5000000 5 2 1 3 0 10 6 7 4 11 8 9
