LAMMPS (29 Oct 2020)
Processor partition = 10
package gpu 1
# Initialization
units            metal
dimension        3
boundary         p p p
atom_style       atomic

#
#  region for the wall
#

region rs sphere 0 0 0 12.66

read_data        input.dat
Reading data file ...
  orthogonal box = (-50.000000 -50.000000 -50.000000) to (50.000000 50.000000 50.000000)
  1 by 1 by 1 MPI processor grid
  reading atoms ...
  38 atoms
  read_data CPU = 0.011 seconds

mass 1 39.948

pair_style lj/cut 8.5
pair_coeff 1 1 0.01042 3.405  8.5
variable i equal part

variable t world  2.00    2.60    3.64    5    6.63    9.12   12.07   16   21.97   26.83   32.76   40.00
velocity        all        create        $t        293288
velocity        all        create        32.76        293288
velocity all zero linear
velocity all zero angular
fix        1        all        nvt        temp        $t        $t        0.1
fix        1        all        nvt        temp        32.76        $t        0.1
fix        1        all        nvt        temp        32.76        32.76        0.1
fix  2 all wall/region rs harmonic 2.0 0.0 0.4


thermo         1000
thermo_style        custom        step  temp     pe ke etotal
thermo_modify       line        one

restart 5000000 restart.*
dump         2 all xyz 10000 structure_$i.xyz
dump         2 all xyz 10000 structure_10.xyz
dump_modify  2 element "Ar" sort id

temper 5000000 1000 $t 1 3678 3490
temper 5000000 1000 32.76 1 3678 3490
Per MPI rank memory allocation (min/avg/max) = 3.436 | 3.436 | 3.436 Mbytes
Step Temp PotEng KinEng TotEng 
       0    32.503727   -1.7950808   0.15545315   -1.6396276 
    1000    37.395027   -1.4603855   0.17884641   -1.2815391 
    2000    31.681248   -1.5816873   0.15151954   -1.4301678 
    3000    30.940625   -1.5410457   0.14797742   -1.3930683 
    4000     27.38412   -1.5875079   0.13096799   -1.4565399 
    5000    27.395666   -1.5652314   0.13102321   -1.4342082 
    6000     22.19242   -1.5522185   0.10613803   -1.4460804 
    7000    30.574077   -1.5655576   0.14622436   -1.4193332 
    8000    25.616527   -1.5267768   0.12251425   -1.4042625 
    9000    38.403639   -1.5065574   0.18367022   -1.3228872 
   10000    30.449718     -1.56423   0.14562959   -1.4186004 
   11000    32.095721    -1.575088   0.15350181   -1.4215862 
   12000    24.268502    -1.599272   0.11606715   -1.4832048 
   13000    33.445285   -1.5592226   0.15995627   -1.3992664 
   14000    27.220187   -1.5920037   0.13018396   -1.4618197 
   15000    25.612697   -1.6084037   0.12249593   -1.4859077 
   16000    26.912764    -1.557381   0.12871367   -1.4286673 
   17000    26.218531    -1.600113   0.12539341   -1.4747196 
   18000    27.451742   -1.5757955    0.1312914   -1.4445041 
   19000    29.372463   -1.5957303   0.14047749   -1.4552528 
   20000    31.597717   -1.5923498   0.15112004   -1.4412298 
   21000    28.665931   -1.5608926   0.13709841   -1.4237942 
   22000    26.534654   -1.6105731   0.12690531   -1.4836678 
   23000     23.67302   -1.5846675   0.11321918   -1.4714483 
   24000    28.387676   -1.6159215   0.13576762   -1.4801539 
   25000    27.495519   -1.6052872   0.13150077   -1.4737864 
   26000    28.557372   -1.5699513   0.13657921   -1.4333721 
   27000    28.569675   -1.5673875   0.13663805   -1.4307495 
   28000    22.834406   -1.5786001   0.10920841   -1.4693917 
   29000    25.573548   -1.5471884    0.1223087   -1.4248797 
   30000    25.982963   -1.6135813   0.12426678   -1.4893145 
   31000    23.929262   -1.5802574   0.11444469   -1.4658127 
   32000    27.710746   -1.5259931   0.13253012   -1.3934629 
   33000    25.815208   -1.5195203   0.12346447   -1.3960559 
   34000    28.384691   -1.5882525   0.13575334   -1.4524991 
   35000    27.189201   -1.5608481   0.13003576   -1.4308123 
   36000    29.372316   -1.5769041   0.14047678   -1.4364274 
   37000    23.213068   -1.5724158   0.11101941   -1.4613964 
   38000    25.217319   -1.5779493   0.12060499   -1.4573443 
   39000    30.147981   -1.5477944    0.1441865   -1.4036079 
   40000    31.088211   -1.5945955   0.14868327   -1.4459122 
   41000    31.756325   -1.6038871   0.15187861   -1.4520085 
   42000    26.762663   -1.5650049   0.12799579   -1.4370091 
   43000    27.618573   -1.5828709   0.13208929   -1.4507816 
   44000    42.652069   -1.5746724   0.20398887   -1.3706835 
   45000    32.831036   -1.6105428   0.15701855   -1.4535243 
   46000    28.900301   -1.5866637   0.13821931   -1.4484444 
   47000    25.485553   -1.5832055   0.12188785   -1.4613176 
   48000    21.831489   -1.6098017   0.10441184   -1.5053899 
   49000     27.49511   -1.5910027   0.13149881   -1.4595038 
   50000     32.22749   -1.5830786   0.15413201   -1.4289466 
   51000     23.78776   -1.5788771   0.11376795   -1.4651092 
   52000    30.419808   -1.5906993   0.14548654   -1.4452127 
   53000    22.948905   -1.5661507   0.10975602   -1.4563947 
   54000    28.359137   -1.5839884   0.13563113   -1.4483573 
   55000    26.393606   -1.5543936   0.12623073   -1.4281629 
   56000    29.291692   -1.5841679   0.14009119   -1.4440767 
   57000    25.398166   -1.5629337   0.12146991   -1.4414638 
   58000    30.132441   -1.5745763   0.14411218   -1.4304642 
   59000    23.323584   -1.5583953   0.11154797   -1.4468474 
   60000    27.435613   -1.5939344   0.13121426   -1.4627201 
   61000    24.777726   -1.5885582   0.11850258   -1.4700556 
   62000    20.677673   -1.6027827  0.098893565   -1.5038891 
   63000    28.874071   -1.5757565   0.13809386   -1.4376626 
   64000    23.401469   -1.5852461   0.11192046   -1.4733256 
   65000    32.474465   -1.5949906    0.1553132   -1.4396774 
   66000    28.481504   -1.6313739   0.13621636   -1.4951575 
   67000    23.458716   -1.6050181   0.11219425   -1.4928239 
   68000    26.730558   -1.5641664   0.12784224   -1.4363242 
   69000    26.883653   -1.5723209   0.12857444   -1.4437465 
   70000    29.305375   -1.5291668   0.14015663   -1.3890102 
   71000    34.173163    -1.562029   0.16343743   -1.3985915 
   72000    21.025227   -1.5797889   0.10055579   -1.4792331 
   73000    29.678424   -1.5948592   0.14194079   -1.4529184 
   74000    21.925337   -1.5426112   0.10486067   -1.4377505 
   75000    25.476066   -1.5929859   0.12184248   -1.4711434 
   76000    21.497501    -1.597706   0.10281449   -1.4948915 
   77000    30.919756   -1.5882217   0.14787761   -1.4403441 
   78000    25.905306   -1.5869371   0.12389537   -1.4630417 
   79000    29.792809   -1.5388301   0.14248784   -1.3963423 
   80000    26.978394   -1.5720931   0.12902755   -1.4430655 
   81000    24.608146   -1.5837922   0.11769154   -1.4661007 
   82000    26.854946   -1.5828174   0.12843714   -1.4543803 
   83000    22.577172   -1.5688044   0.10797815   -1.4608262 
   84000    29.276548   -1.5784429   0.14001876   -1.4384241 
   85000    31.255884   -1.5747844   0.14948518   -1.4252993 
   86000    26.697654   -1.5781245   0.12768488   -1.4504397 
   87000    21.582697    -1.588243   0.10322195   -1.4850211 
   88000    26.449968   -1.5992374   0.12650029   -1.4727371 
   89000    22.990644   -1.5694656   0.10995564   -1.4595099 
   90000    30.297047   -1.5628787   0.14489943   -1.4179793 
   91000    33.661532   -1.5604244    0.1609905   -1.3994339 
   92000    38.709588   -1.5307905   0.18513346    -1.345657 
   93000    37.366046   -1.4978053    0.1787078   -1.3190975 
   94000    30.188159   -1.5525114   0.14437865   -1.4081328 
   95000    38.536256   -1.5251577   0.18430447   -1.3408532 
   96000    29.822974   -1.5210667   0.14263211   -1.3784346 
   97000     26.45558   -1.5312148   0.12652713   -1.4046877 
   98000    35.949258   -1.5161802   0.17193183   -1.3442484 
   99000    26.392597    -1.538089    0.1262259   -1.4118631 
  100000    34.456443   -1.5594013   0.16479226   -1.3946091 
  101000    40.387401   -1.5292958   0.19315781    -1.336138 
  102000    30.936558   -1.5507511   0.14795797   -1.4027932 
  103000    33.915515   -1.5171926    0.1622052   -1.3549874 
  104000    34.034575   -1.5002009   0.16277462   -1.3374262 
  105000    36.985903   -1.5186329   0.17688972   -1.3417432 
  106000    30.534675   -1.5821608   0.14603591   -1.4361249 
  107000    29.095346   -1.5275269   0.13915214   -1.3883747 
  108000    34.045192   -1.5134764    0.1628254    -1.350651 
  109000     29.52866   -1.5563979   0.14122452   -1.4151733 
  110000    34.067063   -1.5080607      0.16293   -1.3451307 
  111000    37.522009   -1.5400394   0.17945371   -1.3605857 
  112000     34.22557   -1.5257039   0.16368808   -1.3620158 
  113000    27.728127   -1.4872888   0.13261324   -1.3546755 
  114000    37.256157   -1.5571393   0.17818224   -1.3789571 
  115000     32.24663    -1.583312   0.15422355   -1.4290885 
  116000    30.885513   -1.5195256   0.14771384   -1.3718118 
  117000    33.351141   -1.4853947   0.15950601   -1.3258887 
  118000    29.134629   -1.4919464   0.13934001   -1.3526064 
  119000     35.64723   -1.5168926   0.17048735   -1.3464053 
  120000    28.668776   -1.5292896   0.13711201   -1.3921776 
  121000    34.670157    -1.536452   0.16581437   -1.3706376 
  122000    36.894359   -1.5045091    0.1764519   -1.3280572 
  123000    31.333651   -1.5486447   0.14985711   -1.3987876 
  124000    32.595256   -1.5601202    0.1558909   -1.4042293 
  125000    33.297197   -1.4813946   0.15924802   -1.3221466 
  126000    34.600319   -1.5969327   0.16548036   -1.4314524 
  127000    22.903112   -1.5523132   0.10953701   -1.4427762 
  128000    27.531926   -1.5951746   0.13167489   -1.4634997 
  129000    19.452328   -1.5910765  0.093033199   -1.4980433 
  130000    27.958871   -1.5898983   0.13371681   -1.4561814 
  131000    31.355329   -1.5757389   0.14996079   -1.4257781 
  132000    20.053173    -1.614994  0.095906813   -1.5190872 
  133000     26.16496   -1.5843151    0.1251372   -1.4591779 
  134000    26.298628    -1.606112   0.12577649   -1.4803355 
  135000    26.881416    -1.579684   0.12856374   -1.4511202 
  136000    28.620397   -1.5748304   0.13688064   -1.4379497 
  137000    22.327881   -1.6103543   0.10678589   -1.5035684 
  138000    28.554364   -1.5755772   0.13656483   -1.4390123 
  139000    26.008281    -1.588814   0.12438787   -1.4644262 
  140000    29.289127   -1.5531091   0.14007892   -1.4130301 
  141000    31.713508    -1.597697   0.15167383   -1.4460232 
  142000    31.569219   -1.5966349   0.15098375   -1.4456512 
  143000    34.321749   -1.5859341   0.16414807    -1.421786 
  144000    27.186355     -1.63488   0.13002215   -1.5048578 
  145000    19.228193   -1.5690475  0.091961242   -1.4770862 
  146000    24.286869   -1.5814221   0.11615499   -1.4652671 
  147000    26.039601   -1.6272998   0.12453766   -1.5027622 
  148000     19.70365   -1.5676555  0.094235175   -1.4734203 
  149000    34.227869   -1.5484953   0.16369907   -1.3847962 
  150000    35.276235   -1.5373419   0.16871302   -1.3686289 
  151000    30.412631   -1.6346755   0.14545222   -1.4892232 
  152000    21.395403   -1.5675893    0.1023262   -1.4652631 
  153000    32.883433   -1.5303425   0.15726914   -1.3730733 
  154000    33.204308    -1.557318   0.15880376   -1.3985142 
  155000    27.536825   -1.5825028   0.13169832   -1.4508045 
  156000    27.473069   -1.6057032   0.13139339   -1.4743098 
  157000    19.994898   -1.6032226  0.095628108   -1.5075945 
  158000    33.945396    -1.590031   0.16234811   -1.4276828 
  159000    25.166667   -1.5541365   0.12036274   -1.4337737 
  160000    31.713191   -1.5755563   0.15167231    -1.423884 
  161000     30.04399    -1.583165   0.14368915   -1.4394758 
  162000    38.559365   -1.5872577     0.184415   -1.4028427 
  163000    31.123683   -1.5243211   0.14885292   -1.3754682 
  164000    19.173224   -1.5538129  0.091698348   -1.4621145 
  165000    23.815112   -1.6008337   0.11389876   -1.4869349 
  166000    31.142221    -1.560892   0.14894158   -1.4119504 
  167000    23.627835   -1.6079079   0.11300308   -1.4949048 
  168000    22.387588   -1.5666236   0.10707145   -1.4595521 
  169000    31.887082   -1.6075337   0.15250397   -1.4550298 
  170000    31.519543   -1.5611665   0.15074617   -1.4104203 
  171000     27.95044   -1.5753389   0.13367648   -1.4416624 
  172000    24.291727   -1.5805695   0.11617823   -1.4643913 
  173000    28.625359   -1.5909188   0.13690437   -1.4540144 
  174000    28.459602   -1.5864634   0.13611162   -1.4503518 
  175000    30.375759   -1.5634544   0.14527588   -1.4181785 
  176000    30.410262   -1.5213789   0.14544089    -1.375938 
  177000    25.311209   -1.5353066   0.12105403   -1.4142526 
  178000    35.507968   -1.5813774   0.16982131   -1.4115561 
  179000     30.36091   -1.5957192   0.14520486   -1.4505143 
  180000    20.307998   -1.5963821  0.097125545   -1.4992566 
  181000    21.929079   -1.5941345   0.10487857    -1.489256 
  182000    25.382969   -1.5662132   0.12139723    -1.444816 
  183000    29.846692   -1.5039366   0.14274555   -1.3611911 
  184000    31.963173   -1.5469649   0.15286788    -1.394097 
  185000    26.832564    -1.503101    0.1283301   -1.3747709 
  186000    37.113856   -1.4966682   0.17750167   -1.3191665 
  187000    25.227483   -1.5198821    0.1206536   -1.3992285 
  188000    29.709697    -1.488104   0.14209035   -1.3460136 
  189000    38.599553   -1.4972339    0.1846072   -1.3126267 
  190000    48.968954   -1.5005599   0.23420016   -1.2663598 
  191000    28.740694   -1.5138209   0.13745597   -1.3763649 
  192000     34.67631   -1.5539496    0.1658438   -1.3881058 
  193000    24.481266   -1.6014005   0.11708472   -1.4843158 
  194000    28.912766   -1.5817655   0.13827893   -1.4434866 
  195000     30.03815   -1.5830019   0.14366122   -1.4393407 
  196000    27.433526   -1.5836241   0.13120428   -1.4524198 
  197000    23.287173   -1.5416716   0.11137383   -1.4302978 
  198000    22.529197   -1.5654408   0.10774871   -1.4576921 
  199000    25.769305   -1.6004165   0.12324493   -1.4771716 
  200000    30.310481   -1.5012868   0.14496367   -1.3563232 
  201000    31.799056    -1.594277   0.15208297    -1.442194 
  202000    23.995709   -1.5638309   0.11476249   -1.4490684 
  203000    29.838417   -1.5678361   0.14270597   -1.4251301 
  204000    19.137035   -1.5946583  0.091525269    -1.503133 
  205000    26.907364   -1.6116994   0.12868784   -1.4830116 
  206000    25.386465   -1.5830387   0.12141395   -1.4616248 
  207000    24.629663   -1.5849539   0.11779445   -1.4671595 
  208000    24.409908   -1.5544777   0.11674344   -1.4377343 
  209000    31.455359   -1.5537712    0.1504392    -1.403332 
  210000     27.46191   -1.5703012   0.13134003   -1.4389612 
  211000    28.350462   -1.6018921   0.13558964   -1.4663025 
  212000    23.916155   -1.5574019   0.11438201   -1.4430198 
  213000    28.199628   -1.6046599   0.13486825   -1.4697917 
  214000    24.559635   -1.5525118   0.11745953   -1.4350522 
  215000    23.980355   -1.5482213   0.11468905   -1.4335323 
  216000     28.08502   -1.5722241   0.13432013   -1.4379039 
  217000    28.598963    -1.591096   0.13677813   -1.4543179 
  218000    26.934865   -1.5767553   0.12881937    -1.447936 
  219000    29.246881   -1.5659983   0.13987687   -1.4261214 
  220000    30.370481   -1.6356351   0.14525063   -1.4903845 
  221000    28.150165   -1.5658486   0.13463169   -1.4312169 
  222000    40.906035    -1.556762   0.19563824   -1.3611237 
  223000    27.905381    -1.545194   0.13346098    -1.411733 
  224000    28.983356   -1.5350019   0.13861653   -1.3963854 
  225000    31.163495   -1.5305777   0.14904332   -1.3815343 
  226000    29.892414   -1.5363408   0.14296422   -1.3933766 
  227000    33.851525   -1.5388267   0.16189916   -1.3769276 
  228000    28.714975   -1.5210826   0.13733297   -1.3837496 
  229000    31.948718    -1.520374   0.15279875   -1.3675753 
  230000    34.078574   -1.5970499   0.16298505   -1.4340649 
  231000    32.584952   -1.5015162   0.15584162   -1.3456745 
  232000    26.585156   -1.5294926   0.12714684   -1.4023458 
  233000    33.221688   -1.5583719   0.15888689    -1.399485 
  234000    30.685592   -1.5870305   0.14675769   -1.4402728 
  235000    29.802134   -1.5702822   0.14253244   -1.4277497 
  236000    25.365343   -1.5696991   0.12131294   -1.4483861 
  237000    28.900631   -1.5226379   0.13822089    -1.384417 
  238000    23.434933   -1.5609866   0.11208051    -1.448906 
  239000    25.672036   -1.5428554   0.12277973   -1.4200757 
  240000    23.985234   -1.6023192   0.11471239   -1.4876068 
  241000    32.490919   -1.5751811   0.15539189   -1.4197892 
  242000     26.08216   -1.6029039    0.1247412   -1.4781627 
  243000    27.331066   -1.5655125   0.13071425   -1.4347983 
  244000    25.905083   -1.5111074   0.12389431   -1.3872131 
  245000    39.153568   -1.5279267   0.18725685   -1.3406699 
  246000    30.611625   -1.5361048   0.14640393   -1.3897009 
  247000    29.738585   -1.5267002   0.14222851   -1.3844717 
  248000    25.459308   -1.5847351   0.12176233   -1.4629727 
  249000    35.814298   -1.5360628   0.17128637   -1.3647764 
  250000    40.805226   -1.5474123   0.19515611   -1.3522561 
  251000    36.957061     -1.53492   0.17675178   -1.3581682 
  252000    26.131224   -1.5675362   0.12497585   -1.4425603 
  253000    33.971055   -1.5173839   0.16247083   -1.3549131 
  254000    34.778797   -1.5159466   0.16633396   -1.3496127 
  255000    26.591749   -1.5021696   0.12717837   -1.3749912 
  256000    24.430025   -1.5126736   0.11683966   -1.3958339 
  257000    41.627394   -1.5454047   0.19908823   -1.3463165 
  258000    34.490889   -1.5365915     0.164957   -1.3716345 
  259000     26.42687   -1.4900458   0.12638982    -1.363656 
  260000    25.883364    -1.538164   0.12379043   -1.4143736 
  261000    30.915214   -1.5522189   0.14785588    -1.404363 
  262000    35.915848   -1.5307644   0.17177204   -1.3589924 
  263000    42.700192   -1.4803433   0.20421902   -1.2761243 
  264000    38.073572   -1.5272073   0.18209163   -1.3451157 
  265000    35.444775    -1.538742   0.16951908   -1.3692229 
  266000    26.462815   -1.4990679   0.12656173   -1.3725062 
  267000    31.281306   -1.4584793   0.14960677   -1.3088725 
  268000     33.81666   -1.5338537   0.16173242   -1.3721212 
  269000    30.795853   -1.5328607   0.14728503   -1.3855756 
  270000    35.524774   -1.5228218   0.16990169   -1.3529201 
  271000    34.192606   -1.5753473   0.16353043   -1.4118169 
  272000    29.508566   -1.5436639   0.14112842   -1.4025355 
  273000      31.6545   -1.5182346   0.15139162    -1.366843 
  274000    32.238967   -1.5632479    0.1541869    -1.409061 
  275000    34.955475   -1.5345205   0.16717894   -1.3673416 
  276000    39.523484   -1.4827225   0.18902602   -1.2936965 
  277000    36.278746   -1.5132216   0.17350765    -1.339714 
  278000    35.378508   -1.4716553   0.16920215   -1.3024531 
  279000    29.233675   -1.5325784   0.13981372   -1.3927647 
  280000    34.345433     -1.47232   0.16426134   -1.3080587 
  281000    27.128929   -1.5270242    0.1297475   -1.3972767 
  282000    27.027618   -1.5889253   0.12926297   -1.4596623 
  283000    32.657622   -1.4370589   0.15618917   -1.2808698 
  284000    36.684381   -1.5255069   0.17544765   -1.3500592 
  285000    27.952545    -1.545288   0.13368655   -1.4116015 
  286000    31.656584   -1.5274987   0.15140158   -1.3760971 
  287000    35.829612   -1.5637149   0.17135961   -1.3923553 
  288000    29.997094   -1.5167312   0.14346486   -1.3732663 
  289000    31.594245   -1.5467965   0.15110344    -1.395693 
  290000    29.806022   -1.5255031   0.14255104   -1.3829521 
  291000    27.584249   -1.5296331   0.13192513    -1.397708 
  292000    25.695784   -1.5341053   0.12289331    -1.411212 
  293000    24.309779   -1.5373641   0.11626457   -1.4210995 
  294000      29.0869   -1.5007777   0.13911175   -1.3616659 
  295000     41.61826   -1.5038678   0.19904455   -1.3048233 
  296000     31.79348   -1.5418019   0.15205631   -1.3897456 
  297000    43.746312   -1.5072499   0.20922222   -1.2980276 
  298000    31.230962   -1.5319301   0.14936599   -1.3825641 
  299000    29.974936   -1.5013989   0.14335889     -1.35804 
  300000    33.277864   -1.5511952   0.15915556   -1.3920397 
  301000    30.141782   -1.4498888   0.14415685   -1.3057319 
  302000    29.108128   -1.5405679   0.13921327   -1.4013547 
  303000    34.417248   -1.5071804    0.1646048   -1.3425756 
  304000    38.816063   -1.5201653   0.18564269   -1.3345227 
  305000    28.217073   -1.5640899   0.13495169   -1.4291382 
  306000    25.957614   -1.5288205   0.12414554    -1.404675 
  307000    34.250601   -1.4781792   0.16380779   -1.3143714 
  308000    35.135518   -1.5450627   0.16804002   -1.3770227 
  309000    33.176193   -1.5023759    0.1586693   -1.3437066 
  310000    34.670186   -1.5260861   0.16581451   -1.3602716 
  311000    35.563848   -1.5538991   0.17008856   -1.3838105 
  312000    35.041727   -1.5480118   0.16759145   -1.3804203 
  313000    30.234065   -1.5188497   0.14459821   -1.3742515 
  314000    26.010081   -1.5641305   0.12439647    -1.439734 
  315000    36.660866   -1.5250085   0.17533519   -1.3496733 
  316000     33.06886   -1.5334348   0.15815597   -1.3752788 
  317000    36.029719   -1.4961936   0.17231665    -1.323877 
  318000    35.337594    -1.525896   0.16900647   -1.3568895 
  319000    29.262657   -1.5066886   0.13995233   -1.3667363 
  320000    31.468111    -1.488951   0.15050019   -1.3384508 
  321000    25.090356   -1.5399991   0.11999777   -1.4200013 
  322000    40.151699   -1.4003255   0.19203054    -1.208295 
  323000    46.826707   -1.4675239    0.2239546   -1.2435693 
  324000    48.350879   -1.4527906   0.23124414   -1.2215464 
  325000    49.594927   -1.4588001   0.23719396   -1.2216061 
  326000    41.304776   -1.4563358   0.19754527   -1.2587905 
  327000    31.738898   -1.4815392   0.15179526   -1.3297439 
  328000    38.869356   -1.4306548   0.18589757   -1.2447573 
  329000    33.582076    -1.400658   0.16061049   -1.2400475 
  330000    38.510008   -1.4332379   0.18417894   -1.2490589 
  331000    49.468044    -1.438969   0.23658712   -1.2023819 
  332000    37.547829   -1.3388816    0.1795772   -1.1593044 
  333000    37.323393   -1.4769049    0.1785038   -1.2984011 
  334000    31.142523   -1.5176432   0.14894302   -1.3687002 
  335000    46.679138   -1.4477716   0.22324883   -1.2245228 
  336000    40.932143   -1.3665263    0.1957631   -1.1707632 
  337000    42.436165   -1.3918938   0.20295628   -1.1889375 
  338000    43.933477   -1.4157265   0.21011736   -1.2056091 
  339000    34.014572   -1.3081507   0.16267895   -1.1454718 
  340000    31.346677   -1.3784422   0.14991941   -1.2285228 
  341000    42.927739   -1.3810774    0.2053073   -1.1757701 
  342000    38.984187   -1.4570684   0.18644676   -1.2706217 
  343000    43.262317   -1.4175071   0.20690745   -1.2105996 
  344000    32.923102   -1.4147503   0.15745886   -1.2572914 
  345000     34.92328   -1.4175666   0.16702496   -1.2505416 
  346000    42.539916   -1.4493768   0.20345248   -1.2459243 
  347000    46.637592   -1.4974784   0.22305013   -1.2744283 
  348000    28.790704   -1.4933144   0.13769515   -1.3556192 
  349000    33.855809   -1.5310924   0.16191965   -1.3691728 
  350000    37.063606   -1.5055902   0.17726134   -1.3283288 
  351000     30.31038   -1.4731859   0.14496319   -1.3282228 
  352000    36.487845   -1.5079542   0.17450769   -1.3334465 
  353000    36.134202   -1.4868893   0.17281635   -1.3140729 
  354000    43.593369   -1.4321758   0.20849075   -1.2236851 
  355000     35.77103   -1.3891426   0.17107943   -1.2180632 
  356000    33.664033   -1.4926131   0.16100246   -1.3316106 
  357000    32.876419   -1.4602721   0.15723559   -1.3030365 
  358000    32.529104   -1.4660756   0.15557452   -1.3105011 
  359000    35.727976   -1.4438847   0.17087352   -1.2730112 
  360000    36.565497   -1.5245417   0.17487907   -1.3496627 
  361000    37.563158   -1.4403327   0.17965051   -1.2606822 
  362000     37.40699   -1.3639965   0.17890362   -1.1850929 
  363000    36.461419   -1.4483036   0.17438131   -1.2739223 
  364000    39.652278   -1.4118895   0.18964199   -1.2222475 
  365000    38.819583   -1.4223115   0.18565952    -1.236652 
  366000    38.938543   -1.4836201   0.18622846   -1.2973916 
  367000     47.44002   -1.4473453   0.22688784   -1.2204575 
  368000    46.785795   -1.4021119   0.22375893   -1.1783529 
  369000    34.468249   -1.4625869   0.16484872   -1.2977382 
  370000    46.389363   -1.4359324   0.22186294   -1.2140695 
  371000    49.924526   -1.3518026    0.2387703   -1.1130323 
  372000    41.142162   -1.3874645   0.19676755    -1.190697 
  373000    34.803836   -1.4036136   0.16645371   -1.2371599 
  374000    47.151063   -1.4401227   0.22550587   -1.2146168 
  375000    37.268019   -1.4197325   0.17823898   -1.2414935 
  376000    49.021138   -1.4641274   0.23444974   -1.2296776 
  377000    47.353402   -1.4781616   0.22647358    -1.251688 
  378000    37.931641   -1.4630773   0.18141283   -1.2816645 
  379000    44.687304   -1.3738471   0.21372263   -1.1601245 
  380000    45.524133   -1.4165734   0.21772487   -1.1988485 
  381000     45.16703   -1.4695568   0.21601698   -1.2535399 
  382000     44.22919    -1.408898   0.21153164   -1.1973663 
  383000    42.678003   -1.4609644    0.2041129   -1.2568515 
  384000    39.147936   -1.4550845   0.18722991   -1.2678546 
  385000    39.346251   -1.3702027   0.18817838   -1.1820243 
  386000    35.483675   -1.4097621   0.16970512    -1.240057 
  387000    39.856037    -1.433029   0.19061649   -1.2424125 
  388000    39.852418   -1.3717824   0.19059918   -1.1811832 
  389000     50.08863   -1.3880017   0.23955515   -1.1484466 
  390000    44.367826    -1.411022   0.21219469   -1.1988274 
  391000    30.861878   -1.3914308    0.1476008     -1.24383 
  392000     44.17313   -1.4321838   0.21126353   -1.2209202 
  393000    37.756125   -1.4247973    0.1805734   -1.2442239 
  394000    33.428235   -1.4066084   0.15987472   -1.2467337 
  395000    34.274485   -1.4437296   0.16392202   -1.2798076 
  396000    44.947416   -1.4093035   0.21496665   -1.1943369 
  397000    38.759292   -1.4119225   0.18537118   -1.2265513 
  398000    35.226869   -1.3774643   0.16847692   -1.2089874 
  399000    29.971955   -1.3470733   0.14334463   -1.2037287 
  400000    39.571799   -1.3780917   0.18925709   -1.1888346 
  401000    47.240478   -1.4029746   0.22593351   -1.1770411 
  402000    37.175746   -1.4473002   0.17779767   -1.2695025 
  403000    37.836934   -1.3979696   0.18095988   -1.2170098 
  404000    37.100683   -1.3950711   0.17743867   -1.2176324 
  405000    37.988002   -1.4667347   0.18168238   -1.2850523 
  406000    51.591047    -1.505871   0.24674065   -1.2591303 
  407000    38.320904   -1.4548256   0.18327453   -1.2715511 
  408000    37.807215   -1.3768882   0.18081774   -1.1960705 
  409000    46.131128   -1.3776516    0.2206279   -1.1570237 
  410000    34.842643   -1.4401108   0.16663931   -1.2734715 
  411000    50.185627   -1.4130658   0.24001905   -1.1730467 
  412000    36.695603   -1.4798992   0.17550132   -1.3043979 
  413000    43.319409   -1.4233851    0.2071805   -1.2162046 
  414000    41.964466   -1.3582471   0.20070032   -1.1575467 
  415000    46.251272   -1.4157464   0.22120251   -1.1945439 
  416000    37.621119   -1.3870365   0.17992772   -1.2071088 
  417000    33.070082   -1.4091428   0.15816181    -1.250981 
  418000    37.793007   -1.3340614    0.1807498   -1.1533116 
  419000    42.154354   -1.4174366   0.20160848   -1.2158281 
  420000    41.960684   -1.4640491   0.20068223   -1.2633669 
  421000    27.719805   -1.3698456   0.13257344   -1.2372721 
  422000    34.421326   -1.3847283   0.16462431    -1.220104 
  423000    42.703369   -1.4191708   0.20423421   -1.2149366 
  424000    46.252837   -1.3668016   0.22120999   -1.1455916 
  425000    39.636641   -1.4052664   0.18956721   -1.2156992 
  426000    46.862303   -1.4463884   0.22412484   -1.2222636 
  427000    32.170483   -1.4037217   0.15385937   -1.2498623 
  428000    41.934914   -1.3813348   0.20055899   -1.1807758 
  429000    33.870459   -1.4074782   0.16198971   -1.2454885 
  430000    41.817811   -1.3680989   0.19999892      -1.1681 
  431000    41.101925   -1.4525133   0.19657511   -1.2559382 
  432000    32.772289   -1.4328932   0.15673758   -1.2761556 
  433000    42.835368   -1.4879984   0.20486552   -1.2831329 
  434000    29.637173   -1.5068563   0.14174349   -1.3651128 
  435000    35.950394   -1.4736384   0.17193726   -1.3017011 
  436000     31.62558   -1.5193591    0.1512533   -1.3681058 
  437000    27.532262   -1.5522945    0.1316765    -1.420618 
  438000    32.509529   -1.5623614    0.1554809   -1.4068805 
  439000    28.142925   -1.5910463   0.13459707   -1.4564493 
  440000    28.804338   -1.5759769   0.13776036   -1.4382166 
  441000    31.205972    -1.612684   0.14924647   -1.4634375 
  442000    20.611661   -1.6332675  0.098577853   -1.5346897 
  443000    20.100579   -1.6613956  0.096133538   -1.5652621 
  444000    19.388307   -1.6533128  0.092727009   -1.5605858 
  445000    23.995067   -1.6342739   0.11475942   -1.5195145 
  446000    23.904454   -1.6204055   0.11432605   -1.5060795 
  447000    19.945664    -1.633144  0.095392637   -1.5377514 
  448000    26.032662   -1.6538932   0.12450447   -1.5293888 
  449000    18.147751   -1.6495472  0.086793895   -1.5627533 
  450000    20.069118   -1.6222278  0.095983071   -1.5262447 
  451000    34.442382   -1.6382603   0.16472501   -1.4735353 
  452000    17.757208    -1.626383  0.084926071    -1.541457 
  453000    19.179483   -1.6109638  0.091728284   -1.5192355 
  454000    22.026982   -1.6073059    0.1053468   -1.5019591 
  455000    26.126697   -1.6351234    0.1249542   -1.5101692 
  456000    26.424696   -1.6459274   0.12637942   -1.5195479 
  457000    22.791203   -1.6264188   0.10900178    -1.517417 
  458000     18.22163   -1.6249847  0.087147231   -1.5378375 
  459000    21.902919   -1.6209694   0.10475345   -1.5162159 
  460000    19.979775   -1.6480984   0.09555578   -1.5525427 
  461000    19.613515   -1.6442339  0.093804092   -1.5504298 
  462000    19.893252   -1.6534275  0.095141971   -1.5582855 
  463000    23.566042   -1.6303469   0.11270755   -1.5176394 
  464000    30.211092   -1.6195021   0.14448833   -1.4750137 
  465000    18.305967   -1.6479893  0.087550581   -1.5604388 
  466000    24.080729   -1.5993368   0.11516911   -1.4841677 
  467000    23.358262   -1.6291617   0.11171382   -1.5174479 
  468000    21.067151   -1.6392429   0.10075629   -1.5384866 
  469000    24.584298   -1.6325583   0.11757749   -1.5149808 
  470000    23.029275   -1.6404753    0.1101404   -1.5303349 
  471000    27.611273   -1.6584394   0.13205437    -1.526385 
  472000    19.407379   -1.6342494  0.092818223   -1.5414311 
  473000    20.583702    -1.600849  0.098444137   -1.5024049 
  474000    18.059437   -1.6693069  0.086371524   -1.5829354 
  475000     21.71249   -1.6199562   0.10384271   -1.5161135 
  476000    21.808397   -1.6466721   0.10430139   -1.5423707 
  477000    20.644688   -1.6401531  0.098735807   -1.5414173 
  478000    24.235483   -1.6094377   0.11590924   -1.4935284 
  479000    19.234062   -1.6628949  0.091989315   -1.5709056 
  480000     20.94984   -1.6215961   0.10019524   -1.5214008 
  481000    23.776201   -1.6293269   0.11371266   -1.5156142 
  482000    27.056226   -1.6236619   0.12939979   -1.4942621 
  483000    24.161164   -1.6073076   0.11555379   -1.4917538 
  484000     21.88306   -1.6481101   0.10465848   -1.5434517 
  485000    19.404785   -1.6269586  0.092805815   -1.5341528 
  486000    20.474981   -1.6427925  0.097924162   -1.5448684 
  487000    20.877101   -1.6153689  0.099847353   -1.5155215 
  488000    22.279382     -1.61993   0.10655394   -1.5133761 
  489000    20.263681   -1.6250875  0.096913594   -1.5281739 
  490000    18.114614   -1.6448712   0.08663541   -1.5582357 
  491000    22.151585   -1.6239283   0.10594273   -1.5179855 
  492000     19.66062   -1.6153688  0.094029381   -1.5213394 
  493000    17.392853   -1.5875482  0.083183501   -1.5043647 
  494000    17.516198   -1.6319832  0.083773411   -1.5482098 
  495000    22.617442   -1.6091997   0.10817075   -1.5010289 
  496000    22.832623   -1.6399817   0.10919988   -1.5307818 
  497000      16.0685   -1.6419159  0.076849615   -1.5650663 
  498000    19.175027   -1.6430411  0.091706969   -1.5513342 
  499000     22.98877   -1.6153949   0.10994668   -1.5054482 
  500000    25.334022   -1.6132855   0.12116313   -1.4921223 
  501000    18.728783   -1.5965485  0.089572753   -1.5069758 
  502000    25.128127   -1.6269327   0.12017842   -1.5067543 
  503000    23.251747   -1.6070106   0.11120439   -1.4958062 
  504000    15.056023    -1.614504  0.072007317   -1.5424966 
  505000    23.501336   -1.6031571   0.11239809    -1.490759 
  506000    21.088827   -1.6116442   0.10085996   -1.5107842 
  507000    20.733155   -1.6454243  0.099158911   -1.5462654 
  508000    20.697092   -1.6273137  0.098986438   -1.5283272 
  509000    25.062891   -1.6270591   0.11986642   -1.5071927 
  510000    32.099861   -1.5673745   0.15352161   -1.4138529 
  511000    23.971487   -1.6014718   0.11464664   -1.4868251 
  512000    29.814728    -1.623236   0.14259267   -1.4806433 
  513000    25.856656   -1.5863119    0.1236627   -1.4626492 
  514000    24.203605   -1.5570709   0.11575677   -1.4413141 
  515000    26.431447   -1.5969962   0.12641171   -1.4705845 
  516000     23.98737   -1.6037408    0.1147226   -1.4890182 
  517000    20.165608   -1.6049241  0.096444547   -1.5084796 
  518000    22.715061   -1.6325502   0.10863763   -1.5239126 
  519000    20.090758   -1.6030772  0.096086567   -1.5069906 
  520000    25.067945   -1.6477076   0.11989059    -1.527817 
  521000     22.78213   -1.6630287   0.10895839   -1.5540703 
  522000    22.099123   -1.6087695   0.10569183   -1.5030777 
  523000    21.829526    -1.626752   0.10440245   -1.5223496 
  524000    19.950751   -1.6257523   0.09541697   -1.5303354 
  525000    23.777498   -1.6312646   0.11371887   -1.5175457 
  526000    19.919745   -1.6128515  0.095268679   -1.5175828 
  527000    25.939377   -1.5267695   0.12405832   -1.4027112 
  528000    24.908869   -1.5986697   0.11912979   -1.4795399 
  529000    27.273534   -1.6369601    0.1304391    -1.506521 
  530000    20.620375   -1.6155395   0.09861953     -1.51692 
  531000    26.852911   -1.6405748   0.12842741   -1.5121474 
  532000    25.677362   -1.6193112    0.1228052    -1.496506 
  533000     23.52098   -1.6510362   0.11249203   -1.5385442 
  534000    24.821553    -1.634064   0.11871219   -1.5153518 
  535000    20.733015   -1.6473933  0.099158243    -1.548235 
  536000    22.880895   -1.6237912   0.10943075   -1.5143605 
  537000     26.70446   -1.6330232   0.12771743   -1.5053058 
  538000    26.834176   -1.6323919   0.12833781   -1.5040541 
  539000    21.914336    -1.648566   0.10480806   -1.5437579 
  540000    23.424617   -1.6498205   0.11203117   -1.5377893 
  541000    17.925019   -1.6442065   0.08572865   -1.5584779 
  542000    20.112299   -1.5987276   0.09618959    -1.502538 
  543000    23.653326   -1.6012715     0.113125   -1.4881465 
  544000    28.188454   -1.5937299   0.13481482   -1.4589151 
  545000    34.678365   -1.6023487   0.16585363   -1.4364951 
  546000    26.942985   -1.5488285    0.1288582   -1.4199703 
  547000    24.656511   -1.6029515   0.11792285   -1.4850287 
  548000    26.220518    -1.605448   0.12540292   -1.4800451 
  549000    25.787254    -1.617365   0.12333078   -1.4940342 
  550000    27.508966   -1.5869656   0.13156508   -1.4554005 
  551000    30.801878   -1.6273352   0.14731384   -1.4800214 
  552000    28.930886   -1.5881707   0.13836559   -1.4498052 
  553000    25.743769   -1.6262831    0.1231228   -1.5031603 
  554000    28.922125    -1.533962   0.13832369   -1.3956383 
  555000    34.920089   -1.5525653    0.1670097   -1.3855556 
  556000    28.627944   -1.5011158   0.13691673    -1.364199 
  557000    25.449625   -1.5670629   0.12171602   -1.4453468 
  558000    45.080619   -1.4895696   0.21560371   -1.2739659 
  559000    26.922801    -1.523531   0.12876167   -1.3947693 
  560000    34.933027   -1.5483315   0.16707158   -1.3812599 
  561000    38.789445   -1.5236248   0.18551538   -1.3381095 
  562000    42.225653   -1.5134089   0.20194948   -1.3114594 
  563000    36.465202   -1.5333454    0.1743994    -1.358946 
  564000    27.350662   -1.5502388   0.13080797   -1.4194309 
  565000    25.857172   -1.5861893   0.12366516   -1.4625241 
  566000    26.323136   -1.6072009    0.1258937   -1.4813072 
  567000      24.0743    -1.566106   0.11513836   -1.4509676 
  568000    25.148466   -1.5487226   0.12027569   -1.4284469 
  569000    38.103621   -1.5488885   0.18223534   -1.3666532 
  570000    28.134391   -1.5673986   0.13455625   -1.4328423 
  571000    33.527043   -1.5155154   0.16034729   -1.3551681 
  572000    38.734869   -1.5119675   0.18525437   -1.3267131 
  573000    32.712766   -1.5943391    0.1564529   -1.4378862 
  574000    23.126029   -1.5594207   0.11060313   -1.4488176 
  575000    27.318157   -1.5939298   0.13065251   -1.4632773 
  576000    25.660283   -1.5663947   0.12272352   -1.4436712 
  577000    27.457074   -1.5620353    0.1313169   -1.4307184 
  578000    22.569713   -1.6329986   0.10794248   -1.5250562 
  579000    21.301929   -1.6177633   0.10187914   -1.5158841 
  580000    18.266183   -1.6270659  0.087360309   -1.5397056 
  581000    19.278754   -1.6322879  0.092203058   -1.5400848 
  582000    19.726249    -1.618852  0.094343257   -1.5245087 
  583000    20.841727   -1.6324965  0.099678173   -1.5328183 
  584000    29.165568   -1.6029464   0.13948798   -1.4634584 
  585000    21.402085   -1.6137092   0.10235815   -1.5113511 
  586000    22.430517   -1.5784409   0.10727676   -1.4711642 
  587000    25.095348   -1.6057626   0.12002165   -1.4857409 
  588000    23.125162   -1.5892275   0.11059899   -1.4786285 
  589000    22.550993    -1.565931   0.10785295    -1.458078 
  590000    31.422497   -1.5871862   0.15028203   -1.4369042 
  591000     30.90406   -1.5776138   0.14780254   -1.4298113 
  592000    19.517007   -1.5811475  0.093342534   -1.4878049 
  593000    19.772523   -1.5459407  0.094564571   -1.4513761 
  594000    40.863314   -1.5437764   0.19543392   -1.3483425 
  595000    30.260984   -1.5570479   0.14472695    -1.412321 
  596000    32.451217   -1.4624855   0.15520201   -1.3072835 
  597000    45.356045   -1.5703933   0.21692097   -1.3534724 
  598000    32.174113   -1.5299108   0.15387673   -1.3760341 
  599000    32.392547   -1.4890962   0.15492142   -1.3341748 
  600000    39.590802   -1.5681325   0.18934798   -1.3787845 
  601000    35.289212   -1.5849711   0.16877508    -1.416196 
  602000    29.164506   -1.5913441   0.13948291   -1.4518612 
  603000    29.359089   -1.6218376   0.14041352   -1.4814241 
  604000    22.715732   -1.6077575   0.10864083   -1.4991167 
  605000    32.954245   -1.5988587   0.15760781   -1.4412509 
  606000    26.145826   -1.6127145   0.12504569   -1.4876689 
  607000    30.732075   -1.5834668      0.14698   -1.4364868 
  608000    32.968025   -1.5959435   0.15767371   -1.4382698 
  609000    27.932499    -1.584539   0.13359068   -1.4509483 
  610000     35.04419   -1.6067916   0.16760323   -1.4391884 
  611000     24.21634   -1.6544558   0.11581768   -1.5386381 
  612000    23.726374   -1.5896587   0.11347436   -1.4761844 
  613000    29.407953   -1.5779996   0.14064722   -1.4373524 
  614000    24.076264   -1.5957427   0.11514775   -1.4805949 
  615000    28.418889   -1.5782375    0.1359169   -1.4423206 
  616000    32.204769   -1.6135565   0.15402335   -1.4595332 
  617000    26.739734   -1.5610859   0.12788613   -1.4331997 
  618000     31.62011   -1.5157879   0.15122714   -1.3645608 
  619000    34.265876   -1.4990771   0.16388085   -1.3351962 
  620000    30.087126   -1.5421723   0.14389545   -1.3982768 
  621000    34.522329   -1.5525778   0.16510736   -1.3874704 
  622000    35.142509   -1.4734415   0.16807345    -1.305368 
  623000    45.168136   -1.5596114   0.21602227   -1.3435891 
  624000    22.111626   -1.5572912   0.10575162   -1.4515395 
  625000    26.015975   -1.5853104   0.12442466   -1.4608857 
  626000     28.11073   -1.6060707   0.13444309   -1.4716276 
  627000    29.237449   -1.6077134   0.13983176   -1.4678816 
  628000    25.549361   -1.5624323   0.12219302   -1.4402393 
  629000    27.939791   -1.5918815   0.13362555   -1.4582559 
  630000    27.356837   -1.6377974    0.1308375   -1.5069599 
  631000    23.295605   -1.6170029   0.11141415   -1.5055887 
  632000    20.015165   -1.6371434  0.095725037   -1.5414183 
  633000    19.650484   -1.6204217  0.093980905   -1.5264408 
  634000    23.956072   -1.6126744   0.11457292   -1.4981015 
  635000    22.581802   -1.6227491    0.1080003   -1.5147488 
  636000    23.466399   -1.6309978   0.11223099   -1.5187668 
  637000    22.551413   -1.6237068   0.10785496   -1.5158518 
  638000    18.060006   -1.5772918  0.086374243   -1.4909176 
  639000    27.091644   -1.6419958   0.12956918   -1.5124267 
  640000     22.48686   -1.6325392   0.10754623    -1.524993 
  641000    25.580186   -1.6288568   0.12234045   -1.5065164 
  642000    18.437497   -1.6465292  0.088179643   -1.5583496 
  643000    22.387904   -1.6378095   0.10707296   -1.5307366 
  644000     20.98136    -1.661429   0.10034599    -1.561083 
  645000    21.435186   -1.6484956   0.10251646   -1.5459792 
  646000    25.251035   -1.6380265   0.12076624   -1.5172602 
  647000    23.717612   -1.6479964   0.11343245   -1.5345639 
  648000     25.75401   -1.6651753   0.12317178   -1.5420035 
  649000    16.357775   -1.6432573  0.078233112   -1.5650242 
  650000    21.276693   -1.6339734   0.10175845   -1.5322149 
  651000    21.683878   -1.6509264   0.10370586   -1.5472205 
  652000    22.690815   -1.6409511   0.10852167   -1.5324295 
  653000    20.075787   -1.6097345   0.09601497   -1.5137195 
  654000    31.353385   -1.6015796   0.14995149   -1.4516281 
  655000    25.144744   -1.6140381   0.12025789   -1.4937802 
  656000    27.375376   -1.5991545   0.13092617   -1.4682283 
  657000    30.289178   -1.5851155   0.14486179   -1.4402537 
  658000    32.359274   -1.6028176   0.15476229   -1.4480554 
  659000    29.772339   -1.6318798   0.14238994   -1.4894899 
  660000    22.369363   -1.5779069   0.10698428   -1.4709226 
  661000    21.870241   -1.6432572   0.10459717   -1.5386601 
  662000    25.097259   -1.6396481   0.12003079   -1.5196174 
  663000    23.923564   -1.6301592   0.11441745   -1.5157418 
  664000    25.092193   -1.6309535   0.12000656    -1.510947 
  665000    22.074296   -1.5652494   0.10557309   -1.4596763 
  666000    18.649078   -1.6312954  0.089191552   -1.5421038 
  667000    21.194804   -1.6309542   0.10136681   -1.5295874 
  668000    27.686734   -1.6030574   0.13241528   -1.4706421 
  669000    20.062458   -1.6493631  0.095951222   -1.5534119 
  670000     22.57574   -1.6247439   0.10797131   -1.5167726 
  671000     26.00288   -1.6259663   0.12436203   -1.5016042 
  672000    17.037738   -1.6394827  0.081485116   -1.5579976 
  673000    14.875557    -1.629538  0.071144216   -1.5583938 
  674000    17.733853   -1.6233205  0.084814373   -1.5385061 
  675000    26.928193   -1.6518357   0.12878746   -1.5230483 
  676000    16.614574   -1.5978332  0.079461282    -1.518372 
  677000    26.199455   -1.6233561   0.12530218   -1.4980539 
  678000    23.255354    -1.651862   0.11122165   -1.5406403 
  679000    21.165617   -1.6172099   0.10122722   -1.5159826 
  680000    24.461446   -1.6320564   0.11698993   -1.5150665 
  681000    19.161137   -1.6358161   0.09164054   -1.5441755 
  682000    24.222966    -1.625916   0.11584937   -1.5100667 
  683000    18.820052   -1.6101223  0.090009256    -1.520113 
  684000    22.875781   -1.6406531   0.10940629   -1.5312468 
  685000    20.539245   -1.6681861  0.098231516   -1.5699546 
  686000    22.992454   -1.6285228   0.10996429   -1.5185585 
  687000    23.547305    -1.662474   0.11261794    -1.549856 
  688000    21.550613   -1.6567986   0.10306851   -1.5537301 
  689000    22.988901   -1.6499148    0.1099473   -1.5399675 
  690000    21.857636   -1.6290626   0.10453689   -1.5245258 
  691000    29.669185   -1.6492056   0.14189659    -1.507309 
  692000    23.123397   -1.6374137   0.11059054   -1.5268231 
  693000    23.348247   -1.6403158   0.11166592   -1.5286499 
  694000    24.104254    -1.653478   0.11528162   -1.5381964 
  695000    17.129979   -1.6585974  0.081926272   -1.5766712 
  696000    20.965545   -1.6477653   0.10027035   -1.5474949 
  697000    20.268786   -1.6413728  0.096938011   -1.5444348 
  698000    23.766068   -1.6500294    0.1136642   -1.5363652 
  699000    22.429538   -1.6630227   0.10727208   -1.5557506 
  700000    24.535549   -1.6592109   0.11734434   -1.5418666 
  701000    23.364789   -1.6280237   0.11174503   -1.5162786 
  702000    27.294883   -1.6445345    0.1305412   -1.5139933 
  703000    23.972597   -1.6564476   0.11465195   -1.5417957 
  704000    22.155403   -1.6741642   0.10596099   -1.5682032 
  705000    27.217861    -1.668075   0.13017283   -1.5379021 
  706000    18.104317   -1.6447111  0.086586167   -1.5581249 
  707000    19.360777   -1.6664776  0.092595345   -1.5738823 
  708000    21.494137   -1.6262386   0.10279841   -1.5234402 
  709000    23.445397   -1.6781656   0.11213055    -1.566035 
  710000    23.187521   -1.6379298   0.11089723   -1.5270326 
  711000    27.418276   -1.6656595   0.13113134   -1.5345281 
  712000    22.024791   -1.6457889   0.10533632   -1.5404526 
  713000    22.614685   -1.6286403   0.10815757   -1.5204827 
  714000    19.394274   -1.6634343  0.092755548   -1.5706787 
  715000    22.385298   -1.6596204   0.10706049   -1.5525599 
  716000    26.243478   -1.6801023   0.12551272   -1.5545895 
  717000    20.290957   -1.6143275  0.097044044   -1.5172835 
  718000    21.973262   -1.6379942   0.10508988   -1.5329043 
  719000    24.053463   -1.6883261    0.1150387   -1.5732874 
  720000    21.416172   -1.6513986   0.10242553   -1.5489731 
  721000    25.951479   -1.6520383    0.1241162   -1.5279221 
  722000     16.98738   -1.6652134  0.081244275   -1.5839691 
  723000    22.699688   -1.6102869    0.1085641   -1.5017228 
  724000    23.382341   -1.6420773   0.11182897   -1.5302483 
  725000    21.848594   -1.6552187   0.10449364   -1.5507251 
  726000    26.076681   -1.6621483   0.12471499   -1.5374333 
  727000     18.20574   -1.6816556  0.087071234   -1.5945844 
  728000    21.871301   -1.6376802   0.10460224   -1.5330779 
  729000    21.816163   -1.6857622   0.10433854   -1.5814237 
  730000     20.69865   -1.6080183  0.098993887   -1.5090244 
  731000    20.372262   -1.6878893  0.097432899   -1.5904564 
  732000    21.810167   -1.6372493   0.10430986   -1.5329394 
  733000    25.623077   -1.6897558   0.12254558   -1.5672102 
  734000    21.127269   -1.6670233   0.10104381   -1.5659795 
  735000    25.579096   -1.6781347   0.12233523   -1.5557994 
  736000    19.817363   -1.6921358  0.094779021   -1.5973568 
  737000    18.317764   -1.6359847  0.087607002   -1.5483777 
  738000    19.528933   -1.6702674  0.093399568   -1.5768678 
  739000    21.638739   -1.6443469   0.10348998   -1.5408569 
  740000    18.049537   -1.6181169  0.086324174   -1.5317927 
  741000    24.291539   -1.6789698   0.11617733   -1.5627925 
  742000    24.468269   -1.6527987   0.11702257   -1.5357762 
  743000    20.278543   -1.6486879  0.096984673   -1.5517032 
  744000     20.51343   -1.6435667   0.09810805   -1.5454586 
  745000    18.559726   -1.6454856  0.088764219   -1.5567214 
  746000    23.175017   -1.6240359   0.11083742   -1.5131985 
  747000    24.238181   -1.6568818   0.11592214   -1.5409597 
  748000    20.804787   -1.6175371  0.099501501   -1.5180356 
  749000    20.714773   -1.6584339  0.099070997   -1.5593629 
  750000     24.53164   -1.6768954   0.11732565   -1.5595698 
  751000    22.124457   -1.6348515   0.10581299   -1.5290385 
  752000    20.400107   -1.6814986  0.097566068   -1.5839325 
  753000    16.436413   -1.6387525  0.078609206   -1.5601433 
  754000    17.702908   -1.6559738  0.084666378   -1.5713075 
  755000    21.560832   -1.6681787   0.10311738   -1.5650613 
  756000    26.779622   -1.6074713    0.1280769   -1.4793944 
  757000    24.443022   -1.6072461   0.11690182   -1.4903443 
  758000    25.365436   -1.6087696   0.12131338   -1.4874562 
  759000    20.136984   -1.6302855  0.096307649   -1.5339778 
  760000    21.590598   -1.6265741   0.10325974   -1.5233144 
  761000    23.776764   -1.6570449   0.11371535   -1.5433295 
  762000    19.910214   -1.6265384  0.095223093   -1.5313153 
  763000    29.034623    -1.660309   0.13886172   -1.5214473 
  764000    28.725154    -1.657056   0.13738165   -1.5196743 
  765000    17.949025   -1.6568449  0.085843464   -1.5710014 
  766000    17.272087   -1.6694568  0.082605921   -1.5868509 
  767000    20.539933   -1.6685673  0.098234803   -1.5703325 
  768000    22.628193    -1.660338   0.10822217   -1.5521159 
  769000    16.702156   -1.7021402  0.079880156   -1.6222601 
  770000    22.903199   -1.6548378   0.10953742   -1.5453003 
  771000    18.546449   -1.6589966  0.088700716   -1.5702958 
  772000    23.181016   -1.6693589   0.11086612   -1.5584928 
  773000    24.951093   -1.6551782   0.11933173   -1.5358465 
  774000    17.647056   -1.6781953  0.084399259    -1.593796 
  775000    28.718623   -1.6686282   0.13735041   -1.5312778 
  776000    21.834502   -1.6707212   0.10442624    -1.566295 
  777000    21.590088    -1.633691    0.1032573   -1.5304337 
  778000    20.033876   -1.6599666  0.095814525   -1.5641521 
  779000    20.996432   -1.6671087   0.10041807   -1.5666906 
  780000    23.089444   -1.6624048   0.11042816   -1.5519766 
  781000    21.493913   -1.7000821   0.10279733   -1.5972848 
  782000    18.006147   -1.6560736  0.086116655    -1.569957 
  783000    25.312436   -1.6605217    0.1210599   -1.5394618 
  784000    24.191281   -1.6299597   0.11569784   -1.5142619 
  785000    24.348546   -1.6754943   0.11644997   -1.5590443 
  786000    16.892425   -1.6733192  0.080790141    -1.592529 
  787000    17.688614   -1.6120845  0.084598013   -1.5274865 
  788000    21.752311   -1.6624693   0.10403315   -1.5584362 
  789000    25.826687   -1.6770955   0.12351937   -1.5535761 
  790000     21.94452   -1.6323408   0.10495242   -1.5273883 
  791000    22.518513   -1.6471347   0.10769761   -1.5394371 
  792000    19.745516   -1.6493731  0.094435407   -1.5549376 
  793000    20.388527   -1.6441041  0.097510687   -1.5465934 
  794000    28.471744   -1.6724629   0.13616969   -1.5362932 
  795000     18.55468   -1.6318149  0.088740085   -1.5430749 
  796000     21.03281   -1.6630485   0.10059205   -1.5624564 
  797000    23.577849   -1.6499641   0.11276402   -1.5372001 
  798000    22.142884    -1.635252   0.10590112   -1.5293508 
  799000    19.612493   -1.6274713  0.093799205    -1.533672 
  800000    25.356798   -1.6270372   0.12127206   -1.5057651 
  801000    35.139666   -1.6087609   0.16805986    -1.440701 
  802000     31.54553   -1.6480106   0.15087045   -1.4971401 
  803000    29.303213   -1.6011342   0.14014629   -1.4609879 
  804000    23.203134   -1.6328891    0.1109719   -1.5219172 
  805000    27.216969    -1.600672   0.13016857   -1.4705034 
  806000    22.891889   -1.6359504   0.10948333    -1.526467 
  807000     25.85844   -1.6574819   0.12367123   -1.5338107 
  808000    20.551096   -1.6242478  0.098288191   -1.5259596 
  809000    21.047601   -1.6738116   0.10066279   -1.5731488 
  810000    23.075285   -1.6468094   0.11036044   -1.5364489 
  811000    18.970945   -1.6689761  0.090730923   -1.5782452 
  812000    25.018326   -1.6519558   0.11965328   -1.5323025 
  813000    20.888272   -1.6334578   0.09990078    -1.533557 
  814000    23.015986   -1.6733626   0.11007684   -1.5632858 
  815000    20.381427   -1.6713068  0.097476729   -1.5738301 
  816000    24.974585   -1.6480347   0.11944409   -1.5285906 
  817000    20.231523   -1.6674086  0.096759796   -1.5706488 
  818000    23.105394   -1.6293824   0.11050444    -1.518878 
  819000    22.003136   -1.6543786   0.10523276   -1.5491458 
  820000     18.97096   -1.6546592  0.090730995   -1.5639282 
  821000    20.806142   -1.6531858  0.099507984   -1.5536778 
  822000    22.757005   -1.6713548   0.10883823   -1.5625165 
  823000    24.415377   -1.6555577    0.1167696   -1.5387881 
  824000    25.250507   -1.6395033   0.12076372   -1.5187396 
  825000    24.842598   -1.6699963   0.11881284   -1.5511834 
  826000    19.509676   -1.6516427  0.093307469   -1.5583352 
  827000    22.695885   -1.6484642   0.10854592   -1.5399183 
  828000    17.025242   -1.6641118  0.081425353   -1.5826864 
  829000     23.73356   -1.6565869   0.11350872   -1.5430781 
  830000    20.780542   -1.6365372  0.099385548   -1.5371516 
  831000    21.066825   -1.6634963   0.10075473   -1.5627416 
  832000    24.103865   -1.6551049   0.11527976   -1.5398251 
  833000     23.36865   -1.6397405    0.1117635    -1.527977 
  834000     24.24848   -1.6635737    0.1159714   -1.5476023 
  835000     23.67361   -1.6734129   0.11322201   -1.5601909 
  836000    19.816421    -1.625679  0.094774518   -1.5309045 
  837000    23.883655   -1.6644804   0.11422657   -1.5502538 
  838000    19.064548    -1.672302  0.091178593   -1.5811234 
  839000    22.305392   -1.6533093   0.10667833    -1.546631 
  840000    23.990726   -1.6814971   0.11473866   -1.5667585 
  841000    25.766238   -1.6448662   0.12323026   -1.5216359 
  842000    16.343828   -1.6608642  0.078166408   -1.5826978 
  843000    16.898117   -1.6356786  0.080817362   -1.5548613 
  844000    21.820145   -1.6541496   0.10435758    -1.549792 
  845000    22.844379   -1.6664618   0.10925611   -1.5572057 
  846000    17.158754   -1.6559079  0.082063892    -1.573844 
  847000    24.560465   -1.6596685    0.1174635    -1.542205 
  848000    19.829015   -1.6493782  0.094834749   -1.5545435 
  849000    21.724314   -1.6559492   0.10389926     -1.55205 
  850000    23.906661   -1.6524407    0.1143366   -1.5381041 
  851000    19.369289    -1.661664  0.092636051    -1.569028 
  852000    19.098451   -1.6364161  0.091340738   -1.5450753 
  853000    23.932759   -1.6519964   0.11446142    -1.537535 
  854000    27.533541   -1.6504108   0.13168261   -1.5187282 
  855000    21.419958   -1.6226951   0.10244363   -1.5202514 
  856000    25.459025   -1.6105352   0.12176098   -1.4887742 
  857000    21.956329   -1.6232951    0.1050089   -1.5182862 
  858000     19.18436   -1.6621023  0.091751607   -1.5703507 
  859000    20.010996   -1.6324604  0.095705097   -1.5367553 
  860000    20.848264   -1.6597332  0.099709434   -1.5600238 
  861000    22.099816   -1.6568689   0.10569514   -1.5511738 
  862000    22.372119    -1.659276   0.10699747   -1.5522785 
  863000    21.836408   -1.6649025   0.10443536   -1.5604672 
  864000    24.069387    -1.651307   0.11511486   -1.5361921 
  865000    21.841192   -1.6752742   0.10445824   -1.5708159 
  866000     16.27745   -1.6671863  0.077848946   -1.5893373 
  867000    20.521634    -1.605705  0.098147289   -1.5075577 
  868000    19.309984   -1.6514974  0.092352422    -1.559145 
  869000    21.219791    -1.653395   0.10148631   -1.5519087 
  870000    19.106588   -1.5940278  0.091379651   -1.5026482 
  871000    19.283064   -1.6591381  0.092223669   -1.5669144 
  872000    18.302783   -1.6330242  0.087535353   -1.5454889 
  873000    20.121889   -1.6494849  0.096235457   -1.5532494 
  874000    17.834785   -1.6691433  0.085297094   -1.5838462 
  875000     22.61927   -1.6750521    0.1081795   -1.5668726 
  876000    21.726326    -1.652723   0.10390888   -1.5488141 
  877000     21.74943   -1.6679795   0.10401937   -1.5639601 
  878000     18.41207   -1.6070545  0.088058035   -1.5189965 
  879000    24.140455    -1.632677   0.11545475   -1.5172223 
  880000    24.180084   -1.5841018   0.11564428   -1.4684575 
  881000    22.119343   -1.6661442   0.10578853   -1.5603557 
  882000    18.790037   -1.6515616  0.089865705   -1.5616959 
  883000    27.742699   -1.5916883   0.13268293   -1.4590053 
  884000    30.282801   -1.6377366   0.14483129   -1.4929053 
  885000    15.571046   -1.6309056   0.07447048   -1.5564352 
  886000    29.189536   -1.6561467   0.13960261   -1.5165441 
  887000    26.037771   -1.6875314   0.12452891   -1.5630025 
  888000    17.064617   -1.6021194  0.081613669   -1.5205058 
  889000    17.175177   -1.6797244  0.082142439   -1.5975819 
  890000    20.964573    -1.645168    0.1002657   -1.5449023 
  891000    24.284931    -1.665041   0.11614573   -1.5488952 
  892000    22.512491   -1.6446557   0.10766881   -1.5369869 
  893000    20.734916   -1.6270111  0.099167336   -1.5278438 
  894000    16.563024   -1.6497232   0.07921474   -1.5705084 
  895000    18.180469    -1.618972  0.086950374   -1.5320216 
  896000    22.287629   -1.6771624   0.10659338    -1.570569 
  897000    16.268132   -1.6488386  0.077804381   -1.5710342 
  898000     17.78404   -1.6453644  0.085054401     -1.56031 
  899000    18.651897   -1.6565741  0.089205037   -1.5673691 
  900000    21.794861   -1.6773816   0.10423666   -1.5731449 
  901000    23.220181   -1.6640915   0.11105343    -1.553038 
  902000    24.404351   -1.6607289   0.11671687    -1.544012 
  903000    21.523143   -1.6548362   0.10293713   -1.5518991 
  904000    18.341166   -1.6831851  0.087718926   -1.5954662 
  905000     14.25164   -1.6983047  0.068160255   -1.6301444 
  906000    15.321237    -1.690505  0.073275738   -1.6172293 
  907000    23.302388   -1.6310512   0.11144659   -1.5196046 
  908000    19.459117   -1.6532281  0.093065667   -1.5601625 
  909000    25.754316   -1.6454475   0.12317324   -1.5222743 
  910000    19.987442   -1.6664167  0.095592448   -1.5708243 
  911000    19.805818   -1.6581088  0.094723808    -1.563385 
  912000    23.924728   -1.6569622   0.11442301   -1.5425392 
  913000    16.690014   -1.6292315  0.079822086   -1.5494094 
  914000     20.39229   -1.6662841  0.097528686   -1.5687555 
  915000    22.780396    -1.653762    0.1089501   -1.5448119 
  916000    20.556506    -1.678373  0.098314065    -1.580059 
  917000    21.200641   -1.6365746   0.10139472   -1.5351799 
  918000    26.998675   -1.6877613   0.12912455   -1.5586367 
  919000    26.794488   -1.6842759     0.128148   -1.5561279 
  920000    24.437452   -1.6504543   0.11687518   -1.5335792 
  921000     22.65656   -1.6563803   0.10835784   -1.5480225 
  922000    21.783148   -1.6551138   0.10418064   -1.5509331 
  923000    22.010264   -1.6184004   0.10526685   -1.5131336 
  924000    21.808924   -1.6805349   0.10430391    -1.576231 
  925000    26.731258   -1.6143269   0.12784559   -1.4864814 
  926000    19.083252   -1.6587758  0.091268044   -1.5675077 
  927000    21.325516   -1.6262254   0.10199196   -1.5242335 
  928000    22.607208   -1.6228303   0.10812181   -1.5147085 
  929000    22.600799   -1.6111154   0.10809115   -1.5030243 
  930000    28.467548   -1.6260067   0.13614962   -1.4898571 
  931000    30.298012   -1.6025544   0.14490404   -1.4576503 
  932000    25.108493   -1.6308116   0.12008451   -1.5107271 
  933000    19.990171   -1.6474104    0.0956055   -1.5518049 
  934000    17.812239   -1.6379758  0.085189266   -1.5527865 
  935000    25.134271   -1.6792729    0.1202078   -1.5590651 
  936000    22.478451   -1.6883369   0.10750601   -1.5808308 
  937000    20.489079   -1.6448908  0.097991589   -1.5468992 
  938000    25.165331   -1.6525055   0.12035635   -1.5321492 
  939000    32.674935   -1.6328402   0.15627197   -1.4765682 
  940000     18.55428   -1.6491516  0.088738169   -1.5604134 
  941000    18.838492   -1.6379709  0.090097449   -1.5478735 
  942000    26.233427   -1.6438773   0.12546465   -1.5184127 
  943000    27.973954   -1.6573206   0.13378894   -1.5235317 
  944000    21.285196   -1.6747085   0.10179912   -1.5729094 
  945000    19.667446   -1.6320557  0.094062024   -1.5379936 
  946000    20.238627   -1.6523161  0.096793772   -1.5555223 
  947000    23.767831   -1.6396664   0.11367263   -1.5259938 
  948000    23.803119   -1.6763814    0.1138414     -1.56254 
  949000    25.690692   -1.6272832   0.12286895   -1.5044143 
  950000    22.057266    -1.673174   0.10549164   -1.5676824 
  951000    26.882557     -1.62782    0.1285692   -1.4992508 
  952000    22.549956   -1.6702418   0.10784799   -1.5623938 
  953000    24.905454   -1.6461909   0.11911345   -1.5270774 
  954000    24.536283   -1.6717484   0.11734785   -1.5544005 
  955000    19.516739     -1.64681  0.093341249   -1.5534688 
  956000    19.618352   -1.6785812  0.093827228    -1.584754 
  957000    20.709462   -1.6452422  0.099045597   -1.5461966 
  958000    21.388504   -1.6634763    0.1022932   -1.5611831 
  959000    18.281815   -1.6480655  0.087435072   -1.5606304 
  960000    25.719558   -1.6684776   0.12300701   -1.5454706 
  961000    19.880359   -1.6538792  0.095080309   -1.5587989 
  962000    20.482861   -1.6795668  0.097961853    -1.581605 
  963000    16.277883   -1.6579978  0.077851015   -1.5801467 
  964000    24.843847   -1.6361813   0.11881881   -1.5173625 
  965000    19.305175   -1.6495991  0.092329422   -1.5572696 
  966000    19.519541   -1.6692652  0.093354654   -1.5759106 
  967000    23.689139   -1.6469293   0.11329628    -1.533633 
  968000    21.770712   -1.6708928   0.10412116   -1.5667716 
  969000    22.112106   -1.6296537   0.10575392   -1.5238998 
  970000    25.379077   -1.6712484   0.12137862   -1.5498698 
  971000    18.562366   -1.6754126  0.088776842   -1.5866358 
  972000    24.350954   -1.6447915   0.11646149   -1.5283301 
  973000    20.546292   -1.6556613  0.098265216   -1.5573961 
  974000    24.345577   -1.6877396   0.11643577   -1.5713038 
  975000    18.727876   -1.6467444  0.089568415    -1.557176 
  976000    16.444317   -1.6406891  0.078647009   -1.5620421 
  977000     20.36889   -1.6593202  0.097416772   -1.5619034 
  978000    20.148858   -1.6478654   0.09636444    -1.551501 
  979000    19.493664   -1.6487348  0.093230891   -1.5555039 
  980000    24.455483   -1.6187961   0.11696141   -1.5018347 
  981000    20.053122   -1.6701612  0.095906568   -1.5742546 
  982000    17.284691   -1.6636303  0.082666201   -1.5809641 
  983000    18.561704   -1.6539521  0.088773679   -1.5651785 
  984000    24.472573   -1.6838984   0.11704315   -1.5668552 
  985000    16.851138   -1.6359018  0.080592679   -1.5553091 
  986000    24.787256    -1.663882   0.11854816   -1.5453338 
  987000    21.144654   -1.6716987   0.10112696   -1.5705718 
  988000    19.565063   -1.6753622  0.093572367   -1.5817899 
  989000    23.428344   -1.6383424   0.11204899   -1.5262935 
  990000    22.880992   -1.6418704   0.10943121   -1.5324392 
  991000    21.090137   -1.6755779   0.10086623   -1.5747117 
  992000    17.378689   -1.6576842  0.083115757   -1.5745684 
  993000    18.634776   -1.6279184  0.089123154   -1.5387953 
  994000    27.028383   -1.6169011   0.12926663   -1.4876345 
  995000    19.361827   -1.6649183  0.092600366   -1.5723179 
  996000    18.128071    -1.608425  0.086699774   -1.5217253 
  997000    21.136723    -1.643522   0.10108903    -1.542433 
  998000    16.889282   -1.6566384   0.08077511   -1.5758633 
  999000    27.940611   -1.6559179   0.13362947   -1.5222884 
 1000000    19.196153   -1.6746994  0.091808007   -1.5828914 
 1001000     21.89485   -1.6668395   0.10471487   -1.5621247 
 1002000    20.463142   -1.6678386  0.097867542   -1.5699711 
 1003000    21.839597   -1.6543358   0.10445061   -1.5498852 
 1004000    21.895446   -1.6292588   0.10471771   -1.5245411 
 1005000    28.770564   -1.6319079   0.13759883   -1.4943091 
 1006000    21.799478    -1.629441   0.10425874   -1.5251823 
 1007000     19.54273   -1.6666479  0.093465557   -1.5731824 
 1008000    26.072066   -1.6375756   0.12469292   -1.5128827 
 1009000     24.87483   -1.6419104   0.11896699   -1.5229434 
 1010000    18.840146   -1.6713747   0.09010536   -1.5812693 
 1011000    23.172753   -1.6257475    0.1108266   -1.5149209 
 1012000    25.546846   -1.6415845     0.122181   -1.5194035 
 1013000    23.681521   -1.6827032   0.11325984   -1.5694433 
 1014000    18.419869   -1.6092311   0.08809533   -1.5211358 
 1015000    24.750645   -1.6523898   0.11837306   -1.5340168 
 1016000    27.047142   -1.6735668   0.12935635   -1.5442105 
 1017000    23.289234   -1.5912373   0.11138368   -1.4798537 
 1018000     26.24983   -1.5699479    0.1255431   -1.4444048 
 1019000    28.422854   -1.5676028   0.13593586   -1.4316669 
 1020000    32.559353   -1.6140908   0.15571919   -1.4583716 
 1021000    31.698521   -1.5566948   0.15160215   -1.4050926 
 1022000    30.538506   -1.6336348   0.14605423   -1.4875806 
 1023000    27.951639   -1.5851796   0.13368222   -1.4514974 
 1024000     30.23453   -1.5994108   0.14460043   -1.4548104 
 1025000    20.352048   -1.5911307   0.09733622   -1.4937945 
 1026000    20.598804   -1.6329093  0.098516363    -1.534393 
 1027000    26.844594   -1.5976639   0.12838763   -1.4692763 
 1028000     17.76483   -1.6406553  0.084962528   -1.5556927 
 1029000      23.4034   -1.6180022    0.1119297   -1.5060725 
 1030000    22.885634   -1.6313092   0.10945342   -1.5218558 
 1031000    22.885676   -1.6490053   0.10945362   -1.5395517 
 1032000     18.44746   -1.6579155  0.088227289   -1.5696882 
 1033000    24.148431   -1.6551384    0.1154929   -1.5396455 
 1034000     25.53904   -1.6723021   0.12214366   -1.5501585 
 1035000    27.206439   -1.6756031    0.1301182   -1.5454849 
 1036000    24.174481   -1.6470891   0.11561749   -1.5314716 
 1037000    25.527262   -1.6474581   0.12208733   -1.5253708 
 1038000    20.901443   -1.6421163  0.099963773   -1.5421526 
 1039000    23.177042   -1.6607933   0.11084711   -1.5499462 
 1040000    24.258966   -1.6415924   0.11602155   -1.5255709 
 1041000    23.031375   -1.6268573   0.11015044   -1.5167069 
 1042000    18.022606   -1.6443612  0.086195375   -1.5581658 
 1043000     18.57015   -1.6382962  0.088814071   -1.5494821 
 1044000    22.095773   -1.6411321   0.10567581   -1.5354563 
 1045000    18.364269   -1.5992026  0.087829417   -1.5113731 
 1046000    24.023804    -1.649662   0.11489685   -1.5347651 
 1047000    25.694181   -1.6320128   0.12288564   -1.5091271 
 1048000    24.133742   -1.6373042   0.11542265   -1.5218816 
 1049000    21.296792   -1.6437841   0.10185458   -1.5419296 
 1050000    23.339109   -1.6374818   0.11162222   -1.5258595 
 1051000    22.592855   -1.6040146   0.10805316   -1.4959614 
 1052000    22.940118   -1.5805856   0.10971399   -1.4708716 
 1053000    31.288076   -1.5986885   0.14963915   -1.4490493 
 1054000    28.236765   -1.6173604   0.13504587   -1.4823146 
 1055000    27.294913   -1.5897839   0.13054134   -1.4592426 
 1056000    22.728688   -1.5937139    0.1087028   -1.4850111 
 1057000    31.283133   -1.5125373    0.1496155   -1.3629218 
 1058000    28.445736   -1.5448961    0.1360453   -1.4088508 
 1059000    37.000061   -1.5743566   0.17695743   -1.3973992 
 1060000      27.7441   -1.5373819   0.13268964   -1.4046923 
 1061000    26.716138   -1.5564585   0.12777328   -1.4286852 
 1062000    30.487086   -1.5719893   0.14580831    -1.426181 
 1063000    38.730425    -1.538455   0.18523311   -1.3532219 
 1064000     39.20017   -1.5412558   0.18747973   -1.3537761 
 1065000    32.947496   -1.5422059   0.15757553   -1.3846304 
 1066000    36.582456   -1.4790035   0.17496018   -1.3040433 
 1067000    33.348321   -1.5394723   0.15949253   -1.3799797 
 1068000      29.8232   -1.5004477   0.14263319   -1.3578145 
 1069000    39.567373   -1.5184027   0.18923592   -1.3291668 
 1070000    37.967648   -1.5502396   0.18158504   -1.3686545 
 1071000    33.157389   -1.4735087   0.15857937   -1.3149293 
 1072000    31.065586   -1.5001158   0.14857506   -1.3515407 
 1073000     25.61499   -1.4954585    0.1225069   -1.3729516 
 1074000    31.326128   -1.4702319   0.14982114   -1.3204108 
 1075000    32.804703   -1.5527063    0.1568926   -1.3958137 
 1076000    35.626652   -1.5393282   0.17038893   -1.3689393 
 1077000    29.890247   -1.4437603   0.14295386   -1.3008064 
 1078000    31.650346   -1.5473407   0.15137175    -1.395969 
 1079000     32.39841   -1.4414829   0.15494946   -1.2865335 
 1080000    35.166464    -1.519323   0.16818802    -1.351135 
 1081000    31.483075   -1.5048764   0.15057175   -1.3543046 
 1082000    34.964851   -1.5042575   0.16722379   -1.3370337 
 1083000    38.934438   -1.4678853   0.18620883   -1.2816765 
 1084000    33.101073   -1.5121854   0.15831003   -1.3538753 
 1085000    34.937356   -1.4849326   0.16709229   -1.3178403 
 1086000    38.996663   -1.5254944   0.18650643    -1.338988 
 1087000    36.231488   -1.5095864   0.17328163   -1.3363048 
 1088000    31.340925   -1.5083803    0.1498919   -1.3584884 
 1089000    32.653192   -1.4928214   0.15616799   -1.3366534 
 1090000    31.787459   -1.4905121   0.15202751   -1.3384846 
 1091000    32.319753   -1.4594662   0.15457327   -1.3048929 
 1092000    33.985661   -1.4969487   0.16254068    -1.334408 
 1093000     35.31469   -1.5523229   0.16889693   -1.3834259 
 1094000    33.923196    -1.515495   0.16224194   -1.3532531 
 1095000    29.535829   -1.5064362    0.1412588   -1.3651774 
 1096000    24.708947   -1.5093163   0.11817364   -1.3911426 
 1097000    39.515345   -1.4888763   0.18898709   -1.2998892 
 1098000    41.886708   -1.5389512   0.20032843   -1.3386227 
 1099000    35.844634   -1.5470503   0.17143145   -1.3756188 
 1100000    32.415213   -1.4987208   0.15502982    -1.343691 
 1101000      29.5385   -1.5056945   0.14127158   -1.3644229 
 1102000    27.983563   -1.4919397    0.1338349   -1.3581048 
 1103000    27.040856   -1.5494227   0.12932628   -1.4200964 
 1104000    33.304928   -1.6026266     0.159285   -1.4433416 
 1105000     21.20501   -1.5729209   0.10141562   -1.4715053 
 1106000    23.538335   -1.6204699   0.11257504   -1.5078949 
 1107000     23.95116   -1.5905461   0.11454943   -1.4759967 
 1108000    22.760413   -1.5969803   0.10885453   -1.4881257 
 1109000     30.70726   -1.5842902   0.14686132   -1.4374289 
 1110000    26.907892   -1.5904124   0.12869036   -1.4617221 
 1111000    24.620508    -1.540801   0.11775067   -1.4230504 
 1112000      24.3866   -1.5110955   0.11663197   -1.3944635 
 1113000    41.003644   -1.5211251   0.19610507     -1.32502 
 1114000    30.662381   -1.4902751   0.14664668   -1.3436284 
 1115000    42.982973     -1.54385   0.20557146   -1.3382785 
 1116000    37.957577   -1.5201706   0.18153687   -1.3386338 
 1117000    36.363276   -1.5389174   0.17391193   -1.3650055 
 1118000    27.399972   -1.5603437    0.1310438   -1.4292999 
 1119000    25.456044   -1.5654458   0.12174672   -1.4436991 
 1120000    37.355721   -1.5296357   0.17865842   -1.3509772 
 1121000    28.507896   -1.5390227   0.13634259   -1.4026801 
 1122000    35.502509   -1.5194149    0.1697952   -1.3496197 
 1123000    36.093405   -1.5380119   0.17262123   -1.3653906 
 1124000    32.494333   -1.5337872   0.15540822    -1.378379 
 1125000    29.903052   -1.5540399    0.1430151   -1.4110248 
 1126000    27.243052   -1.5700907   0.13029331   -1.4397974 
 1127000    26.908754   -1.5248599   0.12869449   -1.3961654 
 1128000    32.030109   -1.5630518   0.15318801   -1.4098638 
 1129000    34.269304   -1.5401315   0.16389724   -1.3762342 
 1130000    30.818098   -1.5581882   0.14739142   -1.4107968 
 1131000    30.568738   -1.5133005   0.14619882   -1.3671016 
 1132000    32.361545   -1.5471961   0.15477315    -1.392423 
 1133000    30.015602    -1.578464   0.14355338   -1.4349106 
 1134000    31.826422   -1.5646496   0.15221385   -1.4124358 
 1135000    24.377368    -1.596853   0.11658782   -1.4802651 
 1136000    18.771875   -1.5706357  0.089778845   -1.4808568 
 1137000    29.129256   -1.5429628   0.13931432   -1.4036485 
 1138000    32.378468   -1.5768874   0.15485408   -1.4220333 
 1139000    44.664912   -1.5121827   0.21361554   -1.2985671 
 1140000    29.829946   -1.5194046   0.14266546   -1.3767392 
 1141000    31.046475   -1.5461861   0.14848366   -1.3977025 
 1142000    27.692412   -1.5744461   0.13244243   -1.4420037 
 1143000    28.904204   -1.6059652   0.13823798   -1.4677272 
 1144000    22.127345   -1.5678582    0.1058268   -1.4620314 
 1145000    36.683088    -1.527491   0.17544147   -1.3520496 
 1146000    23.598792    -1.534909   0.11286418   -1.4220449 
 1147000    28.269218   -1.5337598   0.13520108   -1.3985587 
 1148000    25.164783   -1.5254034   0.12035373   -1.4050497 
 1149000     28.16684   -1.5407616   0.13471144   -1.4060502 
 1150000    44.016823   -1.4962103   0.21051597   -1.2856943 
 1151000    33.002143   -1.5535048   0.15783689   -1.3956679 
 1152000    32.250196   -1.5398906    0.1542406     -1.38565 
 1153000    30.768619   -1.4753556   0.14715478   -1.3282008 
 1154000    25.325396   -1.5434695   0.12112188   -1.4223477 
 1155000    28.914337   -1.5583428   0.13828644   -1.4200564 
 1156000    29.576465    -1.513121   0.14145315   -1.3716679 
 1157000    34.231955   -1.5368621   0.16371861   -1.3731434 
 1158000    33.685157   -1.5087631   0.16110349   -1.3476596 
 1159000    29.401911   -1.5493601   0.14061833   -1.4087418 
 1160000    41.024571   -1.5562931   0.19620516    -1.360088 
 1161000    36.924981   -1.5035929   0.17659835   -1.3269945 
 1162000    39.571244   -1.4776886   0.18925443   -1.2884341 
 1163000    32.995631   -1.4936003   0.15780574   -1.3357946 
 1164000    23.449758   -1.4750303   0.11215141   -1.3628789 
 1165000    38.955084   -1.4622416   0.18630758    -1.275934 
 1166000    37.761415   -1.4409943    0.1805987   -1.2603956 
 1167000    38.901434   -1.3864858   0.18605099   -1.2004348 
 1168000    38.819677   -1.4446185   0.18565997   -1.2589585 
 1169000    30.271518   -1.4485833   0.14477733   -1.3038059 
 1170000    33.530394   -1.4892935   0.16036331   -1.3289301 
 1171000    36.417376   -1.4485293   0.17417067   -1.2743587 
 1172000    43.912677   -1.3743912   0.21001788   -1.1643734 
 1173000    33.465991    -1.454287    0.1600553   -1.2942317 
 1174000    45.416597   -1.4573826   0.21721057    -1.240172 
 1175000    26.531363   -1.4523165   0.12688957    -1.325427 
 1176000    42.921786   -1.4357939   0.20527882    -1.230515 
 1177000    39.865465   -1.4378257   0.19066158   -1.2471641 
 1178000    39.720674   -1.4208201    0.1899691    -1.230851 
 1179000    36.739212   -1.3809706   0.17570989   -1.2052607 
 1180000    37.758918    -1.452813   0.18058676   -1.2722262 
 1181000    41.801064    -1.408041   0.19991883   -1.2081222 
 1182000    32.761734   -1.4535124    0.1566871   -1.2968253 
 1183000     41.71184   -1.4138756   0.19949211   -1.2143835 
 1184000    38.614212   -1.5108284   0.18467731   -1.3261511 
 1185000    46.106531   -1.4337909   0.22051027   -1.2132806 
 1186000    38.363979   -1.4123281   0.18348054   -1.2288476 
 1187000    40.113424   -1.4526647   0.19184748   -1.2608172 
 1188000     37.37478   -1.4431934   0.17874957   -1.2644438 
 1189000    38.786927    -1.456274   0.18550334   -1.2707706 
 1190000    28.939948   -1.4357895   0.13840893   -1.2973806 
 1191000    42.819843   -1.4779015   0.20479127   -1.2731102 
 1192000     35.82924   -1.4487599   0.17135783    -1.277402 
 1193000    48.374187   -1.4853896   0.23135562    -1.254034 
 1194000    34.983513   -1.4581073   0.16731304   -1.2907943 
 1195000    35.860249   -1.4666205   0.17150614   -1.2951143 
 1196000    43.686488   -1.4357364   0.20893611   -1.2268003 
 1197000    50.211014   -1.4563108   0.24014047   -1.2161704 
 1198000     42.26885   -1.4249739   0.20215608   -1.2228178 
 1199000    42.199004   -1.4341581   0.20182203   -1.2323361 
 1200000    42.324439   -1.4496814   0.20242194   -1.2472594 
 1201000     55.19347   -1.5087413   0.26396969   -1.2447716 
 1202000    45.329251   -1.4654069   0.21679282    -1.248614 
 1203000    41.069501   -1.4411648   0.19642004   -1.2447447 
 1204000     50.78674   -1.4299255   0.24289395   -1.1870316 
 1205000    48.258943   -1.3821718   0.23080445   -1.1513673 
 1206000    36.739504    -1.424538   0.17571128   -1.2488267 
 1207000    41.548616   -1.4544971   0.19871147   -1.2557857 
 1208000    34.116681    -1.451844    0.1631673   -1.2886767 
 1209000    45.685124   -1.4432792   0.21849483   -1.2247844 
 1210000    38.640485   -1.4444253   0.18480296   -1.2596223 
 1211000    32.638163    -1.411561    0.1560961   -1.2554649 
 1212000     47.23193   -1.4170771   0.22589263   -1.1911845 
 1213000    40.173076   -1.4278616   0.19213277   -1.2357289 
 1214000    49.145312   -1.4175414   0.23504362   -1.1824978 
 1215000    42.463907   -1.3384009   0.20308896    -1.135312 
 1216000    43.556122    -1.406646   0.20831261   -1.1983333 
 1217000    45.350035   -1.3994792   0.21689223    -1.182587 
 1218000     37.98584   -1.3967882   0.18167204   -1.2151162 
 1219000    34.773229   -1.4440108   0.16630733   -1.2777034 
 1220000    34.944317   -1.4677139   0.16712558   -1.3005884 
 1221000    57.585988   -1.4367009   0.27541221   -1.1612887 
 1222000    48.433581   -1.4461298   0.23163967   -1.2144901 
 1223000    50.654495   -1.4805546   0.24226147   -1.2382931 
 1224000    40.874157   -1.5023776   0.19548578   -1.3068919 
 1225000     40.40147    -1.472309   0.19322509   -1.2790839 
 1226000    34.649388   -1.4493299   0.16571504   -1.2836149 
 1227000    42.093877   -1.4849261   0.20131925   -1.2836068 
 1228000    33.556098   -1.4551412   0.16048624    -1.294655 
 1229000    42.557886   -1.4582395   0.20353843   -1.2547011 
 1230000    37.616607   -1.4919668   0.17990614   -1.3120607 
 1231000    38.026052   -1.5197252   0.18186436   -1.3378608 
 1232000    41.355731   -1.4642232   0.19778897   -1.2664343 
 1233000    38.733941   -1.5177591   0.18524993   -1.3325092 
 1234000     36.48331   -1.5031374     0.174486   -1.3286513 
 1235000    31.269246   -1.5084291   0.14954909   -1.3588801 
 1236000    36.625707   -1.5273076   0.17516703   -1.3521405 
 1237000    30.018405    -1.531242   0.14356679   -1.3876752 
 1238000    39.211966   -1.5738031   0.18753615   -1.3862669 
 1239000    31.396204   -1.6085778   0.15015628   -1.4584215 
 1240000    23.018782   -1.6125854   0.11009021   -1.5024952 
 1241000    18.423282   -1.6184881  0.088111657   -1.5303764 
 1242000    25.955019   -1.5394601   0.12413313    -1.415327 
 1243000    31.435005   -1.4589777   0.15034185   -1.3086358 
 1244000    37.071138   -1.5072821   0.17729737   -1.3299848 
 1245000    42.655433   -1.4372502   0.20400496   -1.2332452 
 1246000    50.555885   -1.4482672   0.24178986   -1.2064774 
 1247000    37.078166   -1.4283746   0.17733098   -1.2510437 
 1248000    40.375689   -1.4848505    0.1931018   -1.2917487 
 1249000    35.778279   -1.4657999   0.17111411   -1.2946858 
 1250000    32.925134   -1.4217482   0.15746858   -1.2642796 
 1251000     47.76286   -1.4435669   0.22843187   -1.2151351 
 1252000    32.900574   -1.5319776   0.15735112   -1.3746265 
 1253000      41.0923   -1.4473296   0.19652908   -1.2508006 
 1254000    42.574862   -1.4804108   0.20361961   -1.2767912 
 1255000    30.783768   -1.5583392   0.14722723   -1.4111119 
 1256000    30.811569   -1.5579264   0.14736019   -1.4105662 
 1257000    31.300729   -1.5342576   0.14969966    -1.384558 
 1258000    27.328214   -1.5058126   0.13070061    -1.375112 
 1259000    25.114378   -1.5545928   0.12011266   -1.4344801 
 1260000    27.612511    -1.537827   0.13206029   -1.4057667 
 1261000     34.68059   -1.5261864   0.16586427   -1.3603221 
 1262000    30.494293    -1.522573   0.14584278   -1.3767302 
 1263000    37.462506   -1.5132491   0.17916913     -1.33408 
[...]
 4698000    19.212419   -1.6162264  0.091885802   -1.5243406 
 4699000    21.111397   -1.6243241    0.1009679   -1.5233562 
 4700000    21.862349   -1.6230084   0.10455942    -1.518449 
 4701000    18.815538   -1.6114419  0.089987668   -1.5214542 
 4702000    25.352005   -1.6189803   0.12124914   -1.4977312 
 4703000      26.5233   -1.6288048   0.12685101   -1.5019538 
 4704000    19.400612   -1.6536636  0.092785859   -1.5608778 
 4705000    20.205596   -1.6282944  0.096635796   -1.5316586 
 4706000    21.825661   -1.6148257   0.10438396   -1.5104418 
 4707000     27.15955   -1.5889793   0.12989395   -1.4590853 
 4708000    28.731923   -1.5950783   0.13741403   -1.4576643 
 4709000    34.400526   -1.5880895   0.16452483   -1.4235647 
 4710000    22.489311   -1.5797717   0.10755795   -1.4722138 
 4711000    30.908998   -1.6303482   0.14782616    -1.482522 
 4712000    24.546276   -1.6351651   0.11739564   -1.5177694 
 4713000    17.775779   -1.6523822  0.085014893   -1.5673673 
 4714000    26.662689    -1.663761   0.12751765   -1.5362434 
 4715000    18.722309   -1.6016614  0.089541791   -1.5121196 
 4716000      23.9006   -1.6176096   0.11430761    -1.503302 
 4717000    22.542221   -1.6300376     0.107811   -1.5222266 
 4718000    14.380632   -1.6363771  0.068777176   -1.5675999 
 4719000    27.182279    -1.583572   0.13000266   -1.4535693 
 4720000     29.86449   -1.6186312   0.14283067   -1.4758006 
 4721000    28.766096   -1.6132054   0.13757746    -1.475628 
 4722000     24.53505   -1.6469983   0.11734195   -1.5296564 
 4723000    23.413669   -1.6192956   0.11197881   -1.5073168 
 4724000    21.414326   -1.6053643    0.1024167   -1.5029476 
 4725000    20.001253   -1.6106565  0.095658498    -1.514998 
 4726000     25.03524   -1.5926564   0.11973418   -1.4729222 
 4727000    23.873515   -1.5446618   0.11417808   -1.4304837 
 4728000    20.160179   -1.6004069  0.096418583   -1.5039883 
 4729000    25.222872   -1.5896051   0.12063155   -1.4689735 
 4730000    28.978526   -1.5926734   0.13859343     -1.45408 
 4731000    31.524365   -1.6207217   0.15076923   -1.4699525 
 4732000    22.825289   -1.6281003   0.10916481   -1.5189355 
 4733000    27.037491   -1.5880723   0.12931019   -1.4587621 
 4734000    25.709566   -1.6199863   0.12295922   -1.4970271 
 4735000    23.879006   -1.6373746   0.11420434   -1.5231703 
 4736000    23.214207   -1.6147749   0.11102485     -1.50375 
 4737000    20.374027   -1.6406942   0.09744134   -1.5432529 
 4738000    17.904096    -1.640337  0.085628583   -1.5547085 
 4739000    25.423987   -1.6438752   0.12159341   -1.5222818 
 4740000    19.766996   -1.6355136  0.094538135   -1.5409755 
 4741000    22.367765   -1.6045467   0.10697664   -1.4975701 
 4742000    25.527003   -1.6067005   0.12208609   -1.4846144 
 4743000    27.174179   -1.6027642   0.12996392   -1.4728003 
 4744000    25.283408   -1.6009686   0.12092107   -1.4800475 
 4745000    21.858948   -1.5485241   0.10454316   -1.4439809 
 4746000    31.321396   -1.5783073    0.1497985   -1.4285088 
 4747000    26.547105   -1.5729004   0.12696486   -1.4459355 
 4748000    26.160464   -1.5924681    0.1251157   -1.4673524 
 4749000    25.804655   -1.5726612     0.123414   -1.4492472 
 4750000    22.637089   -1.5857116   0.10826472   -1.4774469 
 4751000    18.101596   -1.6308909  0.086573151   -1.5443178 
 4752000     30.05452   -1.5759506   0.14373951   -1.4322111 
 4753000    20.258554   -1.6201462  0.096889073   -1.5232571 
 4754000    23.785652   -1.6349682   0.11375786   -1.5212103 
 4755000    25.327114   -1.5804484    0.1211301   -1.4593183 
 4756000    23.710394   -1.5912928   0.11339793   -1.4778948 
 4757000    26.706129   -1.5797418   0.12772541   -1.4520164 
 4758000    24.344588   -1.5704413   0.11643105   -1.4540102 
 4759000    23.656184   -1.6014096   0.11313867   -1.4882709 
 4760000    20.905742   -1.6088417  0.099984333   -1.5088573 
 4761000    23.284552   -1.6152943   0.11136129    -1.503933 
 4762000     23.67722   -1.5657198   0.11323927   -1.4524805 
 4763000    23.789782    -1.596766   0.11377761   -1.4829884 
 4764000    29.305286   -1.6013352    0.1401562    -1.461179 
 4765000    28.971371   -1.6076271   0.13855921   -1.4690679 
 4766000    24.486968   -1.6002468   0.11711199   -1.4831348 
 4767000    25.991935   -1.5838204   0.12430969   -1.4595107 
 4768000    25.649215   -1.6021051   0.12267059   -1.4794345 
 4769000    24.701026   -1.5979176   0.11813575   -1.4797819 
 4770000    24.987981   -1.5708599   0.11950815   -1.4513517 
 4771000    33.536867   -1.5966601   0.16039427   -1.4362659 
 4772000    29.530531   -1.6167436   0.14123347   -1.4755101 
 4773000    26.380569   -1.5557206   0.12616838   -1.4295522 
 4774000    31.155879   -1.6008882    0.1490069   -1.4518813 
 4775000    26.302702   -1.6246897   0.12579597   -1.4988937 
 4776000    20.997823   -1.5898697   0.10042472   -1.4894449 
 4777000    28.111285   -1.5953218   0.13444575   -1.4608761 
 4778000    27.587507   -1.6299733   0.13194071   -1.4980326 
 4779000    28.601258    -1.609054    0.1367891   -1.4722649 
 4780000    30.174262   -1.6194188   0.14431219   -1.4751066 
 4781000    26.450404   -1.5990151   0.12650237   -1.4725128 
 4782000    21.015283   -1.5968997   0.10050823   -1.4963914 
 4783000    27.057866   -1.6199016   0.12940764    -1.490494 
 4784000    33.306765   -1.5911099   0.15929378   -1.4318161 
 4785000     30.01753   -1.5915585    0.1435626   -1.4479959 
 4786000    24.151134   -1.6152464   0.11550583   -1.4997406 
 4787000    19.067753   -1.5940628  0.091193921   -1.5028689 
 4788000    30.686639   -1.6072825    0.1467627   -1.4605198 
 4789000     19.88254   -1.6296068  0.095090741   -1.5345161 
 4790000    22.406095   -1.6058517   0.10715996   -1.4986917 
 4791000    30.694659   -1.5482582   0.14680105   -1.4014572 
 4792000    26.639491    -1.599478   0.12740671   -1.4720713 
 4793000    26.434746   -1.6222078   0.12642749   -1.4957804 
 4794000    36.659139   -1.5974622   0.17532693   -1.4221353 
 4795000    31.448468   -1.5935277   0.15040624   -1.4431214 
 4796000    21.688957   -1.5922262   0.10373016    -1.488496 
 4797000    23.419705   -1.6231905   0.11200767   -1.5111828 
 4798000    26.389503   -1.6076086   0.12621111   -1.4813975 
 4799000    30.536483   -1.5740693   0.14604456   -1.4280248 
 4800000    32.874473   -1.5772796   0.15722629   -1.4200533 
 4801000    37.672539   -1.6171709   0.18017364   -1.4369973 
 4802000    29.897114   -1.5733768    0.1429867   -1.4303901 
 4803000    31.355681   -1.5639919   0.14996248   -1.4140294 
 4804000    20.859637   -1.6416174   0.09976383   -1.5418536 
 4805000    21.929865   -1.6465582   0.10488233   -1.5416759 
 4806000    24.824241   -1.6012136   0.11872504   -1.4824886 
 4807000    29.316594   -1.6403436   0.14021028   -1.5001333 
 4808000    23.925262   -1.6251406   0.11442557   -1.5107151 
 4809000    24.519959    -1.644894   0.11726978   -1.5276242 
 4810000    22.007903   -1.6285976   0.10525556   -1.5233421 
 4811000    23.082971   -1.6291979    0.1103972   -1.5188007 
 4812000    24.231403   -1.6502071   0.11588972   -1.5343174 
 4813000    20.744456   -1.6356746  0.099212962   -1.5364616 
 4814000    22.834617    -1.643892   0.10920942   -1.5346826 
 4815000    18.209802   -1.6232985   0.08709066   -1.5362079 
 4816000    15.765897   -1.6270809  0.075402381   -1.5516785 
 4817000    26.077716    -1.652108   0.12471995   -1.5273881 
 4818000     21.72109   -1.6357801   0.10388384   -1.5318962 
 4819000    19.216361   -1.6397824  0.091904655   -1.5478777 
 4820000    24.212584   -1.6170546   0.11579972   -1.5012549 
 4821000    19.783487   -1.6459628  0.094617008   -1.5513458 
 4822000    19.335416   -1.6137561  0.092474053   -1.5212821 
 4823000    23.725609    -1.613241    0.1134707   -1.4997703 
 4824000    26.789705   -1.5834661   0.12812512    -1.455341 
 4825000    20.707956   -1.6352006  0.099038394   -1.5361623 
 4826000    19.094966   -1.6339286  0.091324067   -1.5426046 
 4827000    19.592341   -1.6435375  0.093702826   -1.5498346 
 4828000    21.397232   -1.6383903   0.10233494   -1.5360553 
 4829000    22.149223   -1.6310798   0.10593144   -1.5251484 
 4830000    23.372463   -1.6175638   0.11178173   -1.5057821 
 4831000    21.158043   -1.6405747   0.10119099   -1.5393837 
 4832000    25.514564   -1.6225017    0.1220266   -1.5004751 
 4833000    27.673195   -1.5600363   0.13235053   -1.4276858 
 4834000    25.100657   -1.6065908   0.12004704   -1.4865437 
 4835000    44.047131   -1.5620612   0.21066093   -1.3514003 
 4836000    25.834695   -1.5931858   0.12355767   -1.4696281 
 4837000    30.737441   -1.5953727   0.14700566    -1.448367 
 4838000    23.210615   -1.6056103   0.11100768   -1.4946026 
 4839000    21.172086    -1.617012   0.10125815   -1.5157538 
 4840000    23.394053   -1.5912913   0.11188499   -1.4794063 
 4841000    22.149263   -1.5651933   0.10593163   -1.4592617 
 4842000    25.972761   -1.6407855   0.12421798   -1.5165675 
 4843000    23.933524   -1.6500195   0.11446508   -1.5355544 
 4844000    23.947599   -1.6305065    0.1145324   -1.5159741 
 4845000    21.039687   -1.6237178   0.10062494   -1.5230928 
 4846000    21.542245   -1.6236633   0.10302849   -1.5206348 
 4847000    23.425586   -1.6456152    0.1120358   -1.5335794 
 4848000    23.064515   -1.6078343   0.11030894   -1.4975254 
 4849000    22.280736   -1.6214847   0.10656041   -1.5149243 
 4850000     19.81097   -1.6022849  0.094748446   -1.5075364 
 4851000    23.906746   -1.6526854   0.11433701   -1.5383484 
 4852000    19.344953   -1.6199352  0.092519661   -1.5274155 
 4853000    23.126308    -1.620832   0.11060447   -1.5102275 
 4854000    20.048183   -1.6404254  0.095882949   -1.5445424 
 4855000    24.209195   -1.5872848   0.11578351   -1.4715013 
 4856000    27.525634   -1.6256007    0.1316448   -1.4939559 
 4857000    23.061317   -1.6275596   0.11029364    -1.517266 
 4858000    14.537432   -1.6041503  0.069527092   -1.5346232 
 4859000    21.764907   -1.6382452    0.1040934   -1.5341518 
 4860000     24.42078   -1.6227235   0.11679544   -1.5059281 
 4861000    19.159261   -1.6366772  0.091631568   -1.5450456 
 4862000    22.453468   -1.6491209   0.10738653   -1.5417343 
 4863000     21.41488   -1.6275352   0.10241935   -1.5251158 
 4864000    21.324388   -1.6489644   0.10198656   -1.5469778 
 4865000    23.660441   -1.6363578   0.11315902   -1.5231988 
 4866000    29.328444   -1.6364307   0.14026696   -1.4961637 
 4867000    19.961538   -1.6363617  0.095468556   -1.5408931 
 4868000    22.661498    -1.617659   0.10838146   -1.5092776 
 4869000    27.027978   -1.6266925   0.12926469   -1.4974279 
 4870000    25.051331   -1.6191578   0.11981113   -1.4993466 
 4871000    19.781036   -1.6337538  0.094605284   -1.5391485 
 4872000    19.156937   -1.6342383  0.091620453   -1.5426178 
 4873000    19.719019   -1.6543959  0.094308678   -1.5600872 
 4874000    22.317366   -1.6404096    0.1067356    -1.533674 
 4875000    25.623411   -1.6208239   0.12254717   -1.4982768 
 4876000    26.284937   -1.6470936   0.12571101   -1.5213826 
 4877000    20.596438   -1.6211918  0.098505046   -1.5226867 
 4878000    18.897603   -1.5947228  0.090380157   -1.5043427 
 4879000    27.407666   -1.6586038    0.1310806   -1.5275232 
 4880000    20.044409   -1.6327927  0.095864901   -1.5369278 
 4881000    20.906167   -1.6341502  0.099986364   -1.5341638 
 4882000    24.437768   -1.6138183   0.11687669   -1.4969416 
 4883000    26.417032   -1.6411876   0.12634277   -1.5148448 
 4884000    14.692717   -1.6458783  0.070269761   -1.5756085 
 4885000    22.203442   -1.6110038   0.10619074   -1.5048131 
 4886000    30.105504   -1.6121185   0.14398335   -1.4681351 
 4887000     21.00398   -1.6678336   0.10045417   -1.5673794 
 4888000    19.489768   -1.6228902  0.093212259   -1.5296779 
 4889000    19.175839   -1.6195285  0.091710855   -1.5278177 
 4890000    26.238399   -1.6381021   0.12548843   -1.5126137 
 4891000    20.583758   -1.6318238  0.098444402   -1.5333794 
 4892000    21.734404   -1.6432812   0.10394751   -1.5393337 
 4893000    18.548649   -1.6465441  0.088711241   -1.5578329 
 4894000    19.647606   -1.6276203  0.093967137   -1.5336532 
 4895000    27.400372   -1.6381229   0.13104572   -1.5070772 
 4896000    17.299115   -1.6225227  0.082735188   -1.5397875 
 4897000    25.121884   -1.6518063   0.12014856   -1.5316578 
 4898000      22.8227   -1.5919532   0.10915242   -1.4828008 
 4899000    23.917183    -1.621017   0.11438693     -1.50663 
 4900000    29.432326   -1.6381743   0.14076379   -1.4974105 
 4901000    22.167235   -1.6216038   0.10601758   -1.5155862 
 4902000    23.836545   -1.6361798   0.11400126   -1.5221786 
 4903000    25.701656   -1.6348302   0.12292139   -1.5119088 
 4904000    24.353939   -1.6472332   0.11647577   -1.5307574 
 4905000     20.84623   -1.6451043  0.099699707   -1.5454046 
 4906000    18.474642   -1.6339894  0.088357291   -1.5456321 
 4907000    19.009016   -1.6308333  0.090913001   -1.5399203 
 4908000     23.93335   -1.6443762   0.11446425   -1.5299119 
 4909000     22.21351    -1.640437    0.1062389   -1.5341981 
 4910000    26.099252   -1.6394654   0.12482294   -1.5146424 
 4911000     18.41203   -1.6453759  0.088057841    -1.557318 
 4912000    23.352774   -1.6260036   0.11168757    -1.514316 
 4913000    18.680967   -1.6744495  0.089344066   -1.5851055 
 4914000     22.59986   -1.6336134   0.10808666   -1.5255268 
 4915000    19.061103   -1.6345777  0.091162116   -1.5434156 
 4916000    25.017003   -1.6282783   0.11964695   -1.5086313 
 4917000    20.970216   -1.6464713   0.10029269   -1.5461786 
 4918000    20.106536   -1.6151951  0.096162029   -1.5190331 
 4919000    24.084132   -1.6448149   0.11518538   -1.5296295 
 4920000    21.252564   -1.6031599   0.10164305   -1.5015168 
 4921000    26.226418   -1.5842373   0.12543113   -1.4588061 
 4922000     19.27807   -1.6097389  0.092199785   -1.5175391 
 4923000    16.838421   -1.6450709  0.080531857    -1.564539 
 4924000    17.981137   -1.6351627  0.085997043   -1.5491656 
 4925000     23.89327   -1.6433523   0.11427256   -1.5290798 
 4926000    26.249054   -1.6237566   0.12553939   -1.4982172 
 4927000     20.20429   -1.6120289  0.096629552   -1.5153994 
 4928000    26.534685   -1.6502942   0.12690546   -1.5233887 
 4929000     22.18189   -1.6581487   0.10608767    -1.552061 
 4930000    23.456948   -1.5978707   0.11218579   -1.4856849 
 4931000    22.190648   -1.6356228   0.10612955   -1.5294933 
 4932000    19.372857   -1.6516915  0.092653116   -1.5590384 
 4933000    24.452228   -1.6294795   0.11694585   -1.5125337 
 4934000     21.45655   -1.5892235   0.10261864   -1.4866049 
 4935000    24.127381   -1.5863621   0.11539223   -1.4709699 
 4936000    27.044996   -1.6149562   0.12934609   -1.4856102 
 4937000    21.951536   -1.6018532   0.10498597   -1.4968673 
 4938000    29.174113   -1.5683849   0.13952885    -1.428856 
 4939000    28.879455   -1.5681014   0.13811961   -1.4299818 
 4940000    30.668067   -1.5136694   0.14667388   -1.3669955 
 4941000    37.392981   -1.5463474   0.17883662   -1.3675108 
 4942000     30.09785   -1.6471738   0.14394674    -1.503227 
 4943000    31.039231   -1.6137885   0.14844901   -1.4653394 
 4944000    27.507289   -1.5962732   0.13155706   -1.4647162 
 4945000    27.627348    -1.595735   0.13213125   -1.4636038 
 4946000    19.905912   -1.6318317  0.095202518   -1.5366292 
 4947000    26.196392   -1.6144329   0.12528753   -1.4891454 
 4948000    24.734895   -1.6423507   0.11829774    -1.524053 
 4949000    23.729854   -1.6406462     0.113491   -1.5271552 
 4950000     24.07088   -1.6296064     0.115122   -1.5144844 
 4951000    20.525548   -1.6382538  0.098166006   -1.5400878 
 4952000    22.703614   -1.6479672   0.10858288   -1.5393843 
 4953000    19.358207   -1.6195032  0.092583053   -1.5269202 
 4954000    21.223862   -1.6197108   0.10150578    -1.518205 
 4955000    20.035543   -1.6530763  0.095822495   -1.5572538 
 4956000    21.946288   -1.6308469   0.10496088    -1.525886 
 4957000    17.022757   -1.6037795  0.081413471    -1.522366 
 4958000    23.217297   -1.6222677   0.11103963   -1.5112281 
 4959000    22.186593   -1.6460204   0.10611016   -1.5399103 
 4960000    21.140288   -1.6289662   0.10110608   -1.5278601 
 4961000    22.640481   -1.6410581   0.10828094   -1.5327772 
 4962000    21.009187   -1.6391896   0.10047907   -1.5387106 
 4963000    18.248543   -1.6282985  0.087275946   -1.5410225 
 4964000    25.650781   -1.6350204   0.12267808   -1.5123423 
 4965000    23.414343   -1.5924632   0.11198203   -1.4804811 
 4966000    27.520696   -1.5790462   0.13162118    -1.447425 
 4967000    22.900936    -1.598276    0.1095266   -1.4887494 
 4968000    24.513674   -1.5878056   0.11723972   -1.4705659 
 4969000     24.73185   -1.6241112   0.11828317    -1.505828 
 4970000    28.924528   -1.6291673   0.13833518   -1.4908321 
 4971000    21.320085   -1.6180522   0.10196598   -1.5160862 
 4972000      19.2138   -1.6331971  0.091892409   -1.5413047 
 4973000     24.75434   -1.6583304   0.11839073   -1.5399397 
 4974000    22.013949   -1.6310627   0.10528447   -1.5257782 
 4975000    19.478917   -1.6174334  0.093160361    -1.524273 
 4976000    22.630239   -1.6231376   0.10823196   -1.5149057 
 4977000    26.847545   -1.6132303   0.12840175   -1.4848285 
 4978000    14.976339   -1.6430695  0.071626218   -1.5714433 
 4979000    22.618784   -1.6212598   0.10817717   -1.5130826 
 4980000    34.360429   -1.5656318   0.16433306   -1.4012988 
 4981000     35.48459    -1.533814    0.1697095   -1.3641045 
 4982000      40.7121   -1.5571944   0.19471072   -1.3624836 
 4983000    33.783839   -1.5320263   0.16157545   -1.3704509 
 4984000    30.667213   -1.5803266   0.14666979   -1.4336568 
 4985000    21.667551   -1.6037537   0.10362778    -1.500126 
 4986000    29.066702   -1.5998618   0.13901514   -1.4608466 
 4987000    18.187607    -1.615465  0.086984511   -1.5284805 
 4988000    22.214013   -1.6040969    0.1062413   -1.4978556 
 4989000    20.502014   -1.6498505  0.098053454    -1.551797 
 4990000     23.87688   -1.6258289   0.11419417   -1.5116348 
 4991000    21.175464    -1.585224   0.10127431   -1.4839497 
 4992000    22.312605   -1.6139829   0.10671283   -1.5072701 
 4993000    23.833154   -1.6363494   0.11398505   -1.5223643 
 4994000    20.332422   -1.6413455  0.097242356   -1.5441032 
 4995000    24.593467   -1.5992839   0.11762134   -1.4816625 
 4996000    20.013753   -1.6458717  0.095718281   -1.5501534 
 4997000    29.642682   -1.6139619   0.14176984   -1.4721921 
 4998000    27.166154   -1.6426992   0.12992554   -1.5127737 
 4999000     20.03632   -1.6521268  0.095826214   -1.5563006 
 5000000    24.187469   -1.6366071    0.1156796   -1.5209275 
Loop time of 1276.16 on 1 procs for 5000000 steps with 38 atoms

Performance: 338.516 ns/day, 0.071 hours/ns, 3918.010 timesteps/s
97.6% CPU use with 1 MPI tasks x no OpenMP threads

MPI task timing breakdown:
Section |  min time  |  avg time  |  max time  |%varavg| %total
---------------------------------------------------------------
Pair    | 1207.7     | 1207.7     | 1207.7     |   0.0 | 94.64
Neigh   | 0.0024135  | 0.0024135  | 0.0024135  |   0.0 |  0.00
Comm    | 1.1721     | 1.1721     | 1.1721     |   0.0 |  0.09
Output  | 0.22993    | 0.22993    | 0.22993    |   0.0 |  0.02
Modify  | 17.086     | 17.086     | 17.086     |   0.0 |  1.34
Other   |            | 49.96      |            |       |  3.91

Nlocal:        38.0000 ave          38 max          38 min
Histogram: 1 0 0 0 0 0 0 0 0 0
Nghost:        0.00000 ave           0 max           0 min
Histogram: 1 0 0 0 0 0 0 0 0 0
Neighs:        0.00000 ave           0 max           0 min
Histogram: 1 0 0 0 0 0 0 0 0 0

Total # of neighbors = 0
Ave neighs/atom = 0.0000000
Neighbor list builds = 10064
Dangerous builds = 0
neighbor            0.3        bin


Total wall time: 0:21:16
