LAMMPS (29 Oct 2020)
Processor partition = 1
package gpu 1
# Initialization
units            metal
dimension        3
boundary         p p p
atom_style       atomic

#
#  region for the wall
#

region rs sphere 0 0 0 12.66

read_data        input.dat
Reading data file ...
  orthogonal box = (-50.000000 -50.000000 -50.000000) to (50.000000 50.000000 50.000000)
  1 by 1 by 1 MPI processor grid
  reading atoms ...
  38 atoms
  read_data CPU = 0.012 seconds

mass 1 39.948

pair_style lj/cut 8.5
pair_coeff 1 1 0.01042 3.405  8.5
variable i equal part

variable t world  2.00    2.60    3.64    5    6.63    9.12   12.07   16   21.97   26.83   32.76   40.00
velocity        all        create        $t        293288
velocity        all        create        2.60        293288
velocity all zero linear
velocity all zero angular
fix        1        all        nvt        temp        $t        $t        0.1
fix        1        all        nvt        temp        2.60        $t        0.1
fix        1        all        nvt        temp        2.60        2.60        0.1
fix  2 all wall/region rs harmonic 2.0 0.0 0.4


thermo         1000
thermo_style        custom        step  temp     pe ke etotal
thermo_modify       line        one

restart 5000000 restart.*
dump         2 all xyz 10000 structure_$i.xyz
dump         2 all xyz 10000 structure_1.xyz
dump_modify  2 element "Ar" sort id

temper 5000000 1000 $t 1 3678 3490
temper 5000000 1000 2.60 1 3678 3490
Per MPI rank memory allocation (min/avg/max) = 3.436 | 3.436 | 3.436 Mbytes
Step Temp PotEng KinEng TotEng 
       0    2.5796608   -1.7950808  0.012337551   -1.7827432 
    1000    2.6798837   -1.7857802   0.01281688   -1.7729633 
    2000    2.6900666   -1.7854609  0.012865581   -1.7725954 
    3000    2.9966487   -1.7835316  0.014331848   -1.7691998 
    4000    2.3162783   -1.7908477  0.011077891   -1.7797698 
    5000    2.6767077     -1.78346   0.01280169   -1.7706583 
    6000    2.4673272   -1.7859296  0.011800302   -1.7741293 
    7000    2.6712972    -1.781489  0.012775814   -1.7687131 
    8000    2.3834923   -1.7843308  0.011399351   -1.7729314 
    9000    2.2541524    -1.782612  0.010780766   -1.7718313 
   10000    1.9002577   -1.7907464 0.0090882205   -1.7816582 
   11000    2.9817092   -1.7856021  0.014260398   -1.7713417 
   12000    2.7485457   -1.7859637  0.013145264   -1.7728184 
   13000    2.0300267   -1.7806018  0.009708857    -1.770893 
   14000    2.4761531   -1.7869649  0.011842513   -1.7751223 
   15000    2.3612492   -1.7841392   0.01129297   -1.7728463 
   16000     2.907565    -1.784998  0.013905794   -1.7710922 
   17000    2.5014964   -1.7846766   0.01196372   -1.7727129 
   18000    2.1247167   -1.7861298  0.010161724   -1.7759681 
   19000    2.1701147   -1.7820341  0.010378845   -1.7716552 
   20000    2.0051441   -1.7862627 0.0095898528   -1.7766729 
   21000    2.4002113    -1.784766  0.011479311   -1.7732867 
   22000     2.898289   -1.7884029   0.01386143   -1.7745415 
   23000    2.9345835   -1.7816319  0.014035014   -1.7675969 
   24000    2.8108004   -1.7824647  0.013443006   -1.7690217 
   25000    2.0173472    -1.785566 0.0096482159   -1.7759178 
   26000    2.6852894    -1.785817  0.012842733   -1.7729743 
   27000    2.2903626   -1.7863168  0.010953946   -1.7753628 
   28000    1.7041629   -1.7891182 0.0081503727   -1.7809679 
   29000    1.7185524   -1.7899101 0.0082191921   -1.7816909 
   30000    1.5560786   -1.7903249 0.0074421411   -1.7828828 
   31000     1.811228   -1.7891288 0.0086624251   -1.7804663 
   32000    1.8910909   -1.7892957 0.0090443792   -1.7802513 
   33000    2.0015631   -1.7917052 0.0095727263   -1.7821325 
   34000    1.7520173    -1.789535 0.0083792425   -1.7811557 
   35000    2.0965917   -1.7899319  0.010027212   -1.7799047 
   36000    1.9541678     -1.78732 0.0093460526   -1.7779739 
   37000    1.9650465   -1.7924369 0.0093980814   -1.7830388 
   38000    1.9652696   -1.7891894 0.0093991482   -1.7797902 
   39000     1.801502   -1.7892646  0.008615909   -1.7806487 
   40000    1.6555057   -1.7860895 0.0079176638   -1.7781718 
   41000    1.6268978   -1.7875834 0.0077808425   -1.7798026 
   42000    1.7495316   -1.7871395 0.0083673541   -1.7787721 
   43000    1.8674875    -1.790588  0.008931493   -1.7816565 
   44000    1.9124467   -1.7875451 0.0091465159   -1.7783986 
   45000    1.7558423   -1.7889158  0.008397536   -1.7805182 
   46000    1.9326714   -1.7910937 0.0092432431   -1.7818504 
   47000    2.3897725   -1.7907254  0.011429387    -1.779296 
   48000    1.6898984   -1.7886545 0.0080821511   -1.7805723 
   49000    2.1169689   -1.7872493  0.010124669   -1.7771246 
   50000    2.3720257    -1.790323   0.01134451   -1.7789785 
   51000    1.8094328   -1.7886127  0.008653839   -1.7799589 
   52000    1.8219964   -1.7870668 0.0087139264   -1.7783529 
   53000    2.2349898   -1.7882245  0.010689119   -1.7775354 
   54000    1.7490127   -1.7883558 0.0083648725   -1.7799909 
   55000    2.0702542   -1.7879355 0.0099012503   -1.7780342 
   56000     3.127805    -1.785964  0.014959119   -1.7710049 
   57000    1.8856654   -1.7891471 0.0090184312   -1.7801287 
   58000    1.7079547   -1.7912749 0.0081685073   -1.7831064 
   59000    2.1442947   -1.7881833  0.010255358   -1.7779279 
   60000    1.5149057   -1.7899784 0.0072452263   -1.7827332 
   61000     2.176159   -1.7880774  0.010407753   -1.7776696 
   62000    2.1240823   -1.7868892   0.01015869   -1.7767305 
   63000    2.1383533   -1.7917356  0.010226943   -1.7815087 
   64000    2.0385483   -1.7931687 0.0097496127   -1.7834191 
   65000    2.0407911   -1.7893401 0.0097603394   -1.7795798 
   66000    2.3821511   -1.7897153  0.011392936   -1.7783224 
   67000    2.2645069   -1.7857038  0.010830288   -1.7748735 
   68000    1.7649622   -1.7888817 0.0084411529   -1.7804405 
   69000    2.1510568   -1.7849962  0.010287699   -1.7747085 
   70000    1.9602183   -1.7903472 0.0093749896   -1.7809723 
   71000    2.1175277   -1.7867944  0.010127342    -1.776667 
   72000    1.7448191   -1.7894669 0.0083448161   -1.7811221 
   73000    2.1191856   -1.7834246  0.010135271   -1.7732893 
   74000    2.6283618   -1.7869047   0.01257047   -1.7743342 
   75000    2.3736597   -1.7849438  0.011352325   -1.7735915 
   76000    2.6669385   -1.7867907  0.012754968   -1.7740357 
   77000    2.3082883    -1.778375  0.011039678   -1.7673353 
   78000    4.2389781   -1.7773113  0.020273444   -1.7570379 
   79000    3.5331821   -1.7759212  0.016897887   -1.7590233 
   80000    2.1374491   -1.7743488  0.010222618   -1.7641261 
   81000    3.5965528   -1.7809167  0.017200965   -1.7637158 
   82000    3.5667826   -1.7803393  0.017058585   -1.7632807 
   83000    4.2455512   -1.7783912  0.020304881   -1.7580863 
   84000    5.1661893   -1.7671479  0.024707948     -1.74244 
   85000    3.8941246   -1.7729636  0.018624139   -1.7543394 
   86000    4.7105137   -1.7707445  0.022528622   -1.7482158 
   87000    4.0070265   -1.7748332  0.019164107   -1.7556691 
   88000    4.8123568    -1.770231    0.0230157   -1.7472153 
   89000    5.1917011   -1.7744722  0.024829961   -1.7496423 
   90000    6.2261074    -1.768968  0.029777139   -1.7391908 
   91000    5.0958507   -1.7748457  0.024371545   -1.7504741 
   92000     4.774972   -1.7688656  0.022836902   -1.7460287 
   93000    6.0943371   -1.7613594  0.029146931   -1.7322124 
   94000    7.6219309   -1.7557651   0.03645284   -1.7193122 
   95000    6.5390309   -1.7670113  0.031273735   -1.7357376 
   96000    7.8868948   -1.7665616  0.037720063   -1.7288415 
   97000    7.6627324   -1.7570373  0.036647978   -1.7203893 
   98000     6.633003   -1.7572807  0.031723169   -1.7255575 
   99000    5.9175566    -1.763834  0.028301456   -1.7355326 
  100000    5.2315405   -1.7664982  0.025020498   -1.7414777 
  101000    7.4536151   -1.7632992  0.035647849   -1.7276513 
  102000    6.6321669   -1.7616064  0.031719169   -1.7298872 
  103000    5.4070263   -1.7591175  0.025859781   -1.7332577 
  104000     9.023428   -1.7555064  0.043155676   -1.7123507 
  105000    6.8229884   -1.7444818  0.032631797     -1.71185 
  106000    8.5459617   -1.7537539  0.040872133   -1.7128818 
  107000    9.9523323   -1.7444078  0.047598277   -1.6968096 
  108000    9.0462573   -1.7523799   0.04326486    -1.709115 
  109000    7.8876824   -1.7556899   0.03772383   -1.7179661 
  110000    9.0501378   -1.7467233  0.043283419   -1.7034399 
  111000    9.9199473   -1.7525908  0.047443391   -1.7051474 
  112000    8.6531824     -1.75155  0.041384929   -1.7101651 
  113000    10.877006   -1.7495118  0.052020643   -1.6974912 
  114000    8.0869302   -1.7525582  0.038676758   -1.7138814 
  115000    9.3722686    -1.750085   0.04482405   -1.7052609 
  116000    8.9351772   -1.7418488  0.042733605   -1.6991152 
  117000    9.2805373   -1.7465163  0.044385333    -1.702131 
  118000    9.9908588   -1.7533406  0.047782535   -1.7055581 
  119000    10.626579   -1.7426497  0.050822947   -1.6918268 
  120000    9.3830249   -1.7444582  0.044875493   -1.6995827 
  121000    9.4056734   -1.7498499  0.044983812   -1.7048661 
  122000    9.8172036   -1.7528701  0.046952007   -1.7059181 
  123000    8.0487053   -1.7459314  0.038493942   -1.7074375 
  124000    7.5124002    -1.753121  0.035928996   -1.7171921 
  125000     12.70055   -1.7226046  0.060741973   -1.6618627 
  126000    13.793533   -1.7424319  0.065969303   -1.6764626 
  127000    12.011286   -1.7451239  0.057445483   -1.6876784 
  128000    12.553246    -1.712717   0.06003747   -1.6526795 
  129000    9.4481223   -1.7359926  0.045186829   -1.6908058 
  130000    16.505877   -1.7331986  0.078941428   -1.6542572 
  131000     15.79712   -1.7435176  0.075551709   -1.6679659 
  132000    10.259901    -1.733193  0.049069261   -1.6841237 
  133000     10.21375   -1.7391354  0.048848538   -1.6902869 
  134000    11.310891   -1.7263347  0.054095753   -1.6722389 
  135000    12.904323   -1.7362021  0.061716545   -1.6744855 
  136000    15.024996   -1.7293308  0.071858929   -1.6574718 
  137000    13.518198    -1.728278  0.064652478   -1.6636255 
  138000    12.416883   -1.7189978  0.059385298   -1.6596125 
  139000    17.313457   -1.7311062  0.082803779   -1.6483024 
  140000    10.266245   -1.7308764  0.049099604   -1.6817768 
  141000    15.453493   -1.7293048  0.073908269   -1.6553966 
  142000    14.745248   -1.7384815  0.070520998   -1.6679605 
  143000    12.438804   -1.7343443  0.059490141   -1.6748541 
  144000     12.95917   -1.7360545  0.061978856   -1.6740756 
  145000    13.294133   -1.7331664  0.063580858   -1.6695855 
  146000     11.42504   -1.7415286  0.054641687    -1.686887 
  147000     14.41197   -1.7339744  0.068927053   -1.6650473 
  148000    10.526916   -1.7414873  0.050346296    -1.691141 
  149000    13.542458   -1.7297566  0.064768504   -1.6649881 
  150000    13.488164    -1.727246  0.064508835   -1.6627371 
  151000    10.729579   -1.7348931  0.051315558   -1.6835775 
  152000    10.737499   -1.7364426  0.051353434   -1.6850892 
  153000    11.960861   -1.7338254  0.057204316   -1.6766211 
  154000    12.635557   -1.7397808  0.060431136   -1.6793497 
  155000     13.96579   -1.7239183  0.066793143   -1.6571251 
  156000    14.395056   -1.6978737   0.06884616   -1.6290275 
  157000    15.461676   -1.7074947  0.073947402   -1.6335473 
  158000    15.869446   -1.6988854  0.075897616   -1.6229877 
  159000    10.506512   -1.6961469  0.050248711   -1.6458982 
  160000    20.178822   -1.7189713  0.096507747   -1.6224635 
  161000    16.117596   -1.6894093  0.077084423   -1.6123249 
  162000    15.065558   -1.7091819  0.072052918    -1.637129 
  163000    14.796571   -1.7126884  0.070766457    -1.641922 
  164000    15.212461   -1.7133533  0.072755501   -1.6405978 
  165000    21.207622   -1.6926108   0.10142811   -1.5911827 
  166000    14.203614   -1.7383678  0.067930567   -1.6704372 
  167000    14.714745   -1.7399964  0.070375114   -1.6696213 
  168000    13.558246   -1.7217784  0.064844011   -1.6569344 
  169000    17.210329   -1.6801986  0.082310557    -1.597888 
  170000    16.834932   -1.6355423  0.080515173   -1.5550272 
  171000    17.648167   -1.6306516  0.084404573    -1.546247 
  172000    23.418617   -1.6185385   0.11200247   -1.5065361 
  173000    21.365072   -1.6668202   0.10218114    -1.564639 
  174000    19.707515   -1.6435719   0.09425366   -1.5493183 
  175000     18.32806   -1.6600505  0.087656242   -1.5723943 
  176000     19.45903   -1.6611281  0.093065249   -1.5680629 
  177000    22.050731   -1.6704948   0.10546038   -1.5650344 
  178000    22.972977   -1.6555883   0.10987114   -1.5457172 
  179000    25.054924   -1.6534724   0.11982831   -1.5336441 
  180000    18.375351   -1.6861912  0.087882418   -1.5983088 
  181000    23.672595   -1.6679901   0.11321715    -1.554773 
  182000    20.230582   -1.6479969  0.096755297   -1.5512416 
  183000    28.944819   -1.6704432   0.13843222   -1.5320109 
  184000    26.165035    -1.653495   0.12513756   -1.5283575 
  185000    21.176614   -1.6819097   0.10127981   -1.5806299 
  186000    25.375508   -1.6809664   0.12136155   -1.5596048 
  187000    26.414886   -1.6669346   0.12633251   -1.5406021 
  188000    28.577834   -1.6754634   0.13667708   -1.5387863 
  189000    19.749336   -1.6726188  0.094453675   -1.5781652 
  190000    19.216612   -1.6742846  0.091905858   -1.5823788 
  191000    24.789024   -1.6883467   0.11855661   -1.5697901 
  192000    23.465658   -1.6679658   0.11222745   -1.5557383 
  193000     22.32381   -1.7139154   0.10676642    -1.607149 
  194000    26.241202   -1.6431883   0.12550184   -1.5176864 
  195000    23.199826    -1.688734   0.11095607   -1.5777779 
  196000    24.342439   -1.6658769   0.11642076   -1.5494562 
  197000    21.873572   -1.6372232    0.1046131   -1.5326101 
  198000    22.151383    -1.688774   0.10594177   -1.5828322 
  199000    22.724505   -1.6538682    0.1086828   -1.5451854 
  200000    25.216162    -1.669429   0.12059946   -1.5488296 
  201000    24.082608   -1.6684538   0.11517809   -1.5532757 
  202000    21.156045   -1.6552071   0.10118144   -1.5540257 
  203000    25.788258    -1.679065   0.12333558   -1.5557294 
  204000    16.069614   -1.6983135  0.076854942   -1.6214586 
  205000    16.233546   -1.6868483   0.07763897   -1.6092093 
  206000     17.94388   -1.7209922  0.085818855   -1.6351734 
  207000    18.232243   -1.7111831  0.087197989   -1.6239851 
  208000    15.883952   -1.7218178  0.075966994   -1.6458508 
  209000    13.611937   -1.7039937  0.065100793   -1.6388929 
  210000    17.907051   -1.7154091  0.085642716   -1.6297664 
  211000    14.284572   -1.7101409  0.068317758   -1.6418232 
  212000    14.305047   -1.6967444  0.068415679   -1.6283287 
  213000    15.793848   -1.7090408  0.075536058   -1.6335048 
  214000    13.774864   -1.7404563  0.065880014   -1.6745763 
  215000    12.346061   -1.7191076  0.059046586    -1.660061 
  216000    12.972174    -1.741154  0.062041051   -1.6791129 
  217000    12.071918   -1.7260276  0.057735461   -1.6682921 
  218000    10.349134   -1.7390703  0.049496032   -1.6895743 
  219000    12.117188   -1.7306277  0.057951969   -1.6726758 
  220000    11.177037    -1.731879  0.053455579   -1.6784234 
  221000    11.713831    -1.736918  0.056022867   -1.6808952 
  222000     12.20867   -1.7224421  0.058389497   -1.6640526 
  223000    13.167998   -1.7432379  0.062977604   -1.6802603 
  224000    14.176771   -1.7235704  0.067802184   -1.6557682 
  225000    12.355878   -1.7336003  0.059093537   -1.6745068 
  226000    13.047221   -1.7381407   0.06239997   -1.6757408 
  227000    10.063376   -1.7140181  0.048129355   -1.6658887 
  228000    12.775133   -1.7200511  0.061098676   -1.6589524 
  229000    11.821503   -1.7293294  0.056537822   -1.6727915 
  230000    10.189778   -1.7312817  0.048733891   -1.6825478 
  231000    10.793601   -1.7205519  0.051621752   -1.6689302 
  232000    10.896422   -1.7329885  0.052113503    -1.680875 
  233000    10.412906   -1.7267022  0.049801027   -1.6769011 
  234000     15.45405   -1.7248684  0.073910929   -1.6509575 
  235000    12.337712    -1.721844  0.059006656   -1.6628374 
  236000    11.484205   -1.7395412   0.05492465   -1.6846166 
  237000    11.344972    -1.739308  0.054258751   -1.6850493 
  238000    8.7668689   -1.7473903  0.041928649   -1.7054617 
  239000    9.6433688   -1.7523357   0.04612062   -1.7062151 
  240000    10.502535   -1.7510179  0.050229691   -1.7007882 
  241000    10.021895   -1.7504262  0.047930967   -1.7024952 
  242000    11.021617   -1.7516022  0.052712264   -1.6988899 
  243000    9.0459975   -1.7421793  0.043263617   -1.6989156 
  244000    6.7463159   -1.7435631  0.032265101    -1.711298 
  245000    7.8302313   -1.7545359  0.037449063   -1.7170868 
  246000     9.647104    -1.750199  0.046138484   -1.7040606 
  247000    8.7441568    -1.740903  0.041820026    -1.699083 
  248000    9.2152313    -1.740394  0.044072999    -1.696321 
  249000    9.9518555   -1.7542862  0.047595997   -1.7066902 
  250000    9.3113975   -1.7555984  0.044532926   -1.7110654 
  251000    9.4172184   -1.7379884  0.045039027   -1.6929494 
  252000    9.5449798   -1.7508314  0.045650062   -1.7051813 
  253000    9.9407503   -1.7534781  0.047542885   -1.7059352 
  254000      10.5605    -1.741148  0.050506916   -1.6906411 
  255000    9.2100777   -1.7511929  0.044048351   -1.7071446 
  256000    8.6303052   -1.7404689  0.041275517   -1.6991933 
  257000    10.299521   -1.7473484  0.049258751   -1.6980896 
  258000    8.4482404    -1.744296  0.040404769   -1.7038913 
  259000    8.7869887   -1.7519215  0.042024875   -1.7098966 
  260000    7.6071721   -1.7484175  0.036382254   -1.7120352 
  261000    11.807545   -1.7498777  0.056471062   -1.6934067 
  262000    8.3208469   -1.7525326  0.039795493   -1.7127371 
  263000    7.1135157   -1.7607306  0.034021281   -1.7267093 
  264000    7.0995214   -1.7570194  0.033954351   -1.7230651 
  265000    6.0657664   -1.7570856  0.029010288   -1.7280754 
  266000    7.1551746   -1.7594935   0.03422052    -1.725273 
  267000    5.2675432   -1.7611818  0.025192686   -1.7359891 
  268000    6.2579744   -1.7579239  0.029929547   -1.7279943 
  269000    6.3171698    -1.768447  0.030212656   -1.7382344 
  270000    6.5178701   -1.7545412  0.031172531   -1.7233686 
  271000    7.0261111   -1.7607865  0.033603257   -1.7271833 
  272000    6.6414666   -1.7697678  0.031763646   -1.7380042 
  273000    6.1403503   -1.7574564  0.029366995   -1.7280895 
  274000    6.5657892   -1.7704231   0.03140171   -1.7390214 
  275000    7.1686371   -1.7572731  0.034284906   -1.7229882 
  276000    7.1144172   -1.7566583  0.034025592   -1.7226327 
  277000    6.9342288   -1.7701432  0.033163819   -1.7369794 
  278000     5.874163   -1.7671755  0.028093921   -1.7390816 
  279000    8.3767764   -1.7479408  0.040062984   -1.7078778 
  280000    6.8922939   -1.7611907   0.03296326   -1.7282274 
  281000    5.7002805   -1.7631914  0.027262306   -1.7359291 
  282000    7.4665444   -1.7637493  0.035709685   -1.7280396 
  283000    8.4581152   -1.7605901  0.040451996   -1.7201381 
  284000    6.9086722   -1.7532307  0.033041591   -1.7201891 
  285000    6.3797572   -1.7626633  0.030511988   -1.7321513 
  286000    7.9221368   -1.7647381  0.037888613   -1.7268495 
  287000     4.790997   -1.7668312  0.022913544   -1.7439177 
  288000    5.3563682   -1.7719456  0.025617502   -1.7463281 
  289000    5.4975458    -1.771438  0.026292702   -1.7451453 
  290000    4.5657268   -1.7728119  0.021836161   -1.7509757 
  291000      5.67055   -1.7714247  0.027120116   -1.7443046 
  292000    5.0217847   -1.7719066  0.024017315   -1.7478893 
  293000    5.3360129   -1.7643448  0.025520151   -1.7388246 
  294000    7.2308037   -1.7613965  0.034582225   -1.7268143 
  295000    5.8468497   -1.7626867  0.027963292   -1.7347234 
  296000     6.041201   -1.7551755  0.028892801   -1.7262827 
  297000    7.0626896   -1.7634207  0.033778199   -1.7296425 
  298000    5.5485053   -1.7661716  0.026536422   -1.7396352 
  299000    8.7975812   -1.7615127  0.042075535   -1.7194371 
  300000    8.3154487    -1.752412  0.039769676   -1.7126423 
  301000    8.3536352   -1.7363195  0.039952307   -1.6963672 
  302000    10.031834    -1.746214  0.047978503   -1.6982355 
  303000    8.1509895   -1.7352574  0.038983129   -1.6962742 
  304000    9.7361064   -1.7442307  0.046564149   -1.6976665 
  305000    8.8579669    -1.754855  0.042364337   -1.7124907 
  306000    8.0234224   -1.7341454  0.038373024   -1.6957724 
  307000    9.9050791   -1.7481122  0.047372283     -1.70074 
  308000    9.8501976      -1.7513  0.047109805   -1.7041902 
  309000    9.6020533   -1.7525474  0.045923024   -1.7066243 
  310000    11.618938   -1.7443814  0.055569029   -1.6888123 
  311000    7.7803716   -1.7506798  0.037210603   -1.7134692 
  312000    8.8316921   -1.7592251  0.042238675   -1.7169864 
  313000     12.12651   -1.7352341  0.057996553   -1.6772375 
  314000    9.9280013   -1.7576253  0.047481911   -1.7101434 
  315000    8.0309212   -1.7444863  0.038408888   -1.7060774 
  316000    9.4608481   -1.7499402  0.045247692   -1.7046925 
  317000    7.8218605   -1.7540266  0.037409028   -1.7166176 
  318000    7.3068345   -1.7595954  0.034945852   -1.7246495 
  319000    5.1433685   -1.7573235  0.024598805   -1.7327247 
  320000    10.095211   -1.7413087  0.048281613   -1.6930271 
  321000    7.0001234   -1.7357101  0.033478968   -1.7022311 
  322000    9.7391223   -1.7480042  0.046578573   -1.7014256 
  323000    10.589165   -1.7436816  0.050644008   -1.6930376 
  324000    8.4942445   -1.7601559  0.040624789   -1.7195311 
  325000    7.3839485   -1.7588845  0.035314659   -1.7235698 
  326000    6.3605378   -1.7576883  0.030420069   -1.7272682 
  327000    5.6094719   -1.7600196  0.026828002   -1.7331916 
  328000    6.7167435   -1.7600308  0.032123668   -1.7279071 
  329000    7.0658629   -1.7575683  0.033793375   -1.7237749 
  330000    6.5415611    -1.767433  0.031285836   -1.7361471 
  331000    3.4177774   -1.7740368  0.016345949   -1.7576909 
  332000    3.3049154   -1.7787563  0.015806172   -1.7629501 
  333000     3.441609   -1.7843165  0.016459926   -1.7678565 
  334000    2.4335353   -1.7793906  0.011638688   -1.7677519 
  335000     2.609414   -1.7842307  0.012479849   -1.7717508 
  336000    2.6854214   -1.7872248  0.012843364   -1.7743814 
  337000     2.816985   -1.7864199  0.013472584   -1.7729473 
  338000    2.4179914   -1.7842457  0.011564347   -1.7726814 
  339000     2.176299   -1.7832933  0.010408423   -1.7728849 
  340000    2.2932197   -1.7870286  0.010967611    -1.776061 
  341000    2.2123154   -1.7825137  0.010580676    -1.771933 
  342000    4.4299784   -1.7789901  0.021186927   -1.7578032 
  343000    3.1408069    -1.778186  0.015021303   -1.7631647 
  344000    4.9230589    -1.778242  0.023545146   -1.7546969 
  345000    3.5417392   -1.7799842  0.016938812   -1.7630454 
  346000    3.4274882   -1.7843297  0.016392392   -1.7679373 
  347000    3.3918672   -1.7788955   0.01622203   -1.7626734 
  348000    3.2148973   -1.7799231   0.01537565   -1.7645475 
  349000    3.6572694   -1.7798796  0.017491349   -1.7623882 
  350000    3.4661631    -1.780773   0.01657736   -1.7641956 
  351000    3.8275752   -1.7799972  0.018305858   -1.7616913 
  352000    4.0828859   -1.7768895  0.019526914   -1.7573626 
  353000    3.7175027   -1.7744334  0.017779423    -1.756654 
  354000    4.0562508   -1.7796029  0.019399528   -1.7602034 
  355000    3.4687474    -1.780646  0.016589719   -1.7640563 
  356000     4.025392   -1.7841466  0.019251942   -1.7648946 
  357000    4.1655663   -1.7749119  0.019922343   -1.7549896 
  358000    4.0431575   -1.7720133  0.019336908   -1.7526764 
  359000    3.6883898   -1.7806637  0.017640187   -1.7630235 
  360000    4.9761205   -1.7808303   0.02379892   -1.7570314 
  361000    3.9545286   -1.7770826  0.018913029   -1.7581696 
  362000    3.1348596   -1.7774524  0.014992859   -1.7624596 
  363000       4.0509   -1.7731778  0.019373937   -1.7538039 
  364000    3.4692586    -1.773537  0.016592164   -1.7569448 
  365000     4.298537   -1.7756133  0.020558292    -1.755055 
  366000    3.0938795   -1.7789773  0.014796867   -1.7641804 
  367000    4.0366258   -1.7792049  0.019305669   -1.7598993 
  368000    4.1600825   -1.7780251  0.019896116    -1.758129 
  369000    2.9690356   -1.7786283  0.014199785   -1.7644285 
  370000    2.9142067   -1.7797881  0.013937559   -1.7658506 
  371000    3.3312017    -1.780478   0.01593189   -1.7645461 
  372000    2.4615576   -1.7734808  0.011772708   -1.7617081 
  373000    5.5571601   -1.7695908  0.026577815    -1.743013 
  374000    5.6830834   -1.7697174  0.027180059   -1.7425373 
  375000    5.7911281   -1.7731157  0.027696796   -1.7454189 
  376000    5.4680251   -1.7702838  0.026151516   -1.7441323 
  377000      3.49823   -1.7727595  0.016730723   -1.7560288 
  378000    4.7575282   -1.7687185  0.022753475    -1.745965 
  379000    3.6252718   -1.7746621  0.017338317   -1.7573238 
  380000    6.3736729   -1.7769339   0.03048289    -1.746451 
  381000    4.7419142   -1.7739372  0.022678799   -1.7512584 
  382000    4.7051875   -1.7697096  0.022503149   -1.7472065 
  383000    4.2025016   -1.7737406  0.020098991   -1.7536416 
  384000    5.0676701   -1.7721122  0.024236768   -1.7478754 
  385000     4.351877   -1.7728294  0.020813398    -1.752016 
  386000    4.8588753   -1.7698717   0.02323818   -1.7466335 
  387000    6.0901575   -1.7697821  0.029126942   -1.7406552 
  388000    5.2142755   -1.7668158  0.024937926   -1.7418779 
  389000    5.3158315   -1.7693071  0.025423631   -1.7438835 
  390000    4.7959732   -1.7644425  0.022937343   -1.7415052 
  391000    5.3046555   -1.7798846   0.02537018   -1.7545144 
  392000    5.0977381   -1.7774242  0.024380572   -1.7530436 
  393000     5.358775   -1.7717794  0.025629013   -1.7461504 
  394000    5.7192409   -1.7728793  0.027352987   -1.7455263 
  395000    3.5513848   -1.7818534  0.016984943   -1.7648684 
  396000    3.9195052   -1.7795174  0.018745525   -1.7607719 
  397000    3.7060683   -1.7804938  0.017724736   -1.7627691 
  398000    3.0257932   -1.7737417  0.014471235   -1.7592705 
  399000    3.2446054   -1.7809292  0.015517732   -1.7654115 
  400000    3.1713887   -1.7788687  0.015167564   -1.7637011 
  401000     3.613826   -1.7826021  0.017283576   -1.7653185 
  402000    4.3508053   -1.7751366  0.020808272   -1.7543284 
  403000    3.6204051   -1.7824862  0.017315041   -1.7651712 
  404000    2.1864879   -1.7860494  0.010457153   -1.7755922 
  405000    2.4883786   -1.7865939  0.011900983   -1.7746929 
  406000     2.981522   -1.7852327  0.014259503   -1.7709732 
  407000    2.4700323   -1.7818082  0.011813239    -1.769995 
  408000    3.5922103   -1.7765231  0.017180196   -1.7593429 
  409000    3.7421531    -1.779464  0.017897316   -1.7615667 
  410000    4.4682268   -1.7788107  0.021369855   -1.7574409 
  411000    3.5578637   -1.7794956  0.017015929   -1.7624796 
  412000    4.2363275   -1.7757266  0.020260767   -1.7554659 
  413000    3.5700965   -1.7792206  0.017074434   -1.7621462 
  414000    4.4448328   -1.7779016   0.02125797   -1.7566436 
  415000    3.0813503   -1.7764783  0.014736944   -1.7617413 
  416000    3.9208178   -1.7825911  0.018751803   -1.7638393 
  417000    3.8640025   -1.7813679  0.018480076   -1.7628878 
  418000    3.4634066   -1.7775249  0.016564176   -1.7609607 
  419000    3.9154191   -1.7791515  0.018725983   -1.7604256 
  420000    2.7981693   -1.7843541  0.013382596   -1.7709715 
  421000    3.9124429   -1.7818873  0.018711749   -1.7631755 
  422000    3.8317236   -1.7773591  0.018325698   -1.7590334 
  423000    3.9649137   -1.7817377  0.018962697   -1.7627751 
  424000    4.1110319   -1.7780134  0.019661525   -1.7583519 
  425000    4.1360393   -1.7777408  0.019781126   -1.7579596 
  426000    2.8879658   -1.7779564  0.013812058   -1.7641444 
  427000    3.3347386   -1.7799916  0.015948805   -1.7640428 
  428000    3.6170737   -1.7831956  0.017299108   -1.7658965 
  429000    3.3119458   -1.7807073  0.015839796   -1.7648675 
  430000    4.3593147   -1.7804616  0.020848969   -1.7596126 
  431000    4.0871274   -1.7803382  0.019547199    -1.760791 
  432000    3.2831692   -1.7860982  0.015702168    -1.770396 
  433000    3.7088459    -1.779176   0.01773802    -1.761438 
  434000    3.7960637   -1.7775782   0.01815515    -1.759423 
  435000    2.8721284   -1.7802627  0.013736314   -1.7665263 
  436000    3.8887272    -1.783637  0.018598325   -1.7650387 
  437000     3.852527   -1.7787632  0.018425193    -1.760338 
  438000    3.0358535    -1.782614   0.01451935   -1.7680946 
  439000    3.2848289   -1.7829031  0.015710106    -1.767193 
  440000    2.9958407   -1.7826899  0.014327984   -1.7683619 
  441000    3.6593664   -1.7750658  0.017501379   -1.7575644 
  442000    3.2853559   -1.7756862  0.015712626   -1.7599735 
  443000    3.1073577   -1.7790719  0.014861328   -1.7642106 
  444000    4.2565126   -1.7809489  0.020357305   -1.7605916 
  445000    2.8377067   -1.7749247  0.013571688    -1.761353 
  446000    3.5590431   -1.7774786   0.01702157   -1.7604571 
  447000    3.5067754   -1.7711805  0.016771593   -1.7544089 
  448000    5.0489938   -1.7663778  0.024147446   -1.7422304 
  449000    5.4215497   -1.7737336  0.025929241   -1.7478044 
  450000    5.2539685   -1.7785494  0.025127763   -1.7534217 
  451000    5.9433839   -1.7638771  0.028424979   -1.7354521 
  452000    4.8915868    -1.773503  0.023394627   -1.7501084 
  453000    4.2511618   -1.7698191  0.020331714   -1.7494874 
  454000    5.7741474   -1.7713512  0.027615584   -1.7437356 
  455000    5.7627519   -1.7727571  0.027561083    -1.745196 
  456000    4.5063702   -1.7723767   0.02155228   -1.7508244 
  457000    7.5663801   -1.7708215  0.036187161   -1.7346344 
  458000    5.0787127   -1.7749726   0.02428958    -1.750683 
  459000    4.2815201   -1.7654664  0.020476907   -1.7449895 
  460000    5.5951041   -1.7717815  0.026759287   -1.7450222 
  461000    4.2186904   -1.7645821  0.020176415   -1.7444057 
  462000    4.8814236   -1.7699572   0.02334602   -1.7466112 
  463000    5.0358569   -1.7723103  0.024084617   -1.7482257 
  464000    5.3622966   -1.7697263  0.025645856   -1.7440804 
  465000    5.1255083   -1.7770082  0.024513386   -1.7524948 
  466000    5.0751086   -1.7730098  0.024272343   -1.7487374 
  467000    4.5271385   -1.7693095  0.021651608   -1.7476579 
  468000    5.8546225   -1.7741519  0.028000466   -1.7461514 
  469000    5.8576125   -1.7761666  0.028014766   -1.7481518 
  470000    4.4662575   -1.7748289  0.021360437   -1.7534684 
  471000    5.0037552    -1.770948  0.023931087    -1.747017 
  472000    4.9750135   -1.7672944  0.023793626   -1.7435008 
  473000    5.7043658   -1.7727424  0.027281845   -1.7454606 
  474000    3.7400437   -1.7831819  0.017887228   -1.7652947 
  475000     4.422573   -1.7880387   0.02115151   -1.7668872 
  476000    4.7845521   -1.7748144   0.02288272   -1.7519317 
  477000    3.1294059    -1.772441  0.014966776   -1.7574742 
  478000    4.9818482   -1.7761321  0.023826314   -1.7523057 
  479000    5.6949568   -1.7736556  0.027236845   -1.7464188 
  480000    3.7180727   -1.7860662  0.017782149   -1.7682841 
  481000    2.2036077   -1.7881729   0.01053903   -1.7776338 
  482000    3.0425314   -1.7864632  0.014551288   -1.7719119 
  483000    2.9210106   -1.7830451  0.013970099    -1.769075 
  484000    2.8173157      -1.7857  0.013474166   -1.7722258 
  485000    2.0029665   -1.7826736 0.0095794385   -1.7730941 
  486000    3.4137044   -1.7768278  0.016326469   -1.7605014 
  487000    3.9695786   -1.7811452  0.018985008   -1.7621601 
  488000    3.6111055   -1.7809172  0.017270565   -1.7636467 
  489000    4.4058959   -1.7770583  0.021071749   -1.7559866 
  490000    3.5414698   -1.7773569  0.016937523   -1.7604194 
  491000    4.4950125   -1.7774268  0.021497961   -1.7559289 
  492000    3.9758492   -1.7780535  0.019014997   -1.7590385 
  493000     4.207132   -1.7818467  0.020121136   -1.7617255 
  494000    3.6163419   -1.7772778  0.017295609   -1.7599822 
  495000    3.5945355   -1.7794267  0.017191316   -1.7622354 
  496000    3.5034975   -1.7806881  0.016755916   -1.7639322 
  497000    2.8401251    -1.778327  0.013583254   -1.7647438 
  498000    3.3130218   -1.7819864  0.015844942   -1.7661414 
  499000    3.3193618   -1.7792057  0.015875264   -1.7633304 
  500000    3.4527496   -1.7753183  0.016513208   -1.7588051 
  501000    3.4177902   -1.7796129   0.01634601   -1.7632669 
  502000    3.0503471   -1.7824991  0.014588667   -1.7679104 
  503000    3.6930824   -1.7826408  0.017662629   -1.7649782 
  504000    4.0685182   -1.7791977  0.019458198   -1.7597395 
  505000    3.3424269   -1.7776455  0.015985575   -1.7616599 
  506000    3.5420354   -1.7794667  0.016940228   -1.7625264 
  507000    3.6944887   -1.7806678  0.017669355   -1.7629984 
  508000    2.7701901   -1.7833158  0.013248781    -1.770067 
  509000    3.5020333   -1.7804006  0.016748914   -1.7636517 
  510000     3.476559    -1.779455  0.016627079   -1.7628279 
  511000     4.379586   -1.7744437  0.020945919   -1.7534978 
  512000    3.9415964   -1.7813603  0.018851179   -1.7625091 
  513000    3.4136358   -1.7814255  0.016326141   -1.7650993 
  514000    3.5563195   -1.7841644  0.017008544   -1.7671558 
  515000    3.8360469   -1.7754054  0.018346375    -1.757059 
  516000    3.5622959   -1.7761749  0.017037127   -1.7591377 
  517000    2.7107841      -1.7808  0.012964665   -1.7678353 
  518000    2.9406595   -1.7810371  0.014064073   -1.7669731 
  519000    4.3238577   -1.7774342  0.020679391   -1.7567549 
  520000    3.6181281    -1.769143  0.017304151   -1.7518389 
  521000    3.9360686   -1.7678992  0.018824742   -1.7490744 
  522000     5.422061   -1.7737708  0.025931687   -1.7478392 
  523000    7.3696648   -1.7666342  0.035246346   -1.7313879 
  524000    6.8559476   -1.7633564  0.032789429    -1.730567 
  525000    6.9514203   -1.7604739  0.033246039   -1.7272279 
  526000    8.3226336   -1.7607267  0.039804039   -1.7209227 
  527000    7.1291867    -1.767517  0.034096229   -1.7334208 
  528000     5.194503   -1.7589118  0.024843362   -1.7340684 
  529000    8.4511125   -1.7351946  0.040418505   -1.6947761 
  530000    10.439396   -1.7487365   0.04992772   -1.6988087 
  531000    6.9727655   -1.7537263  0.033348125   -1.7203782 
  532000    9.2331286   -1.7466442  0.044158595   -1.7024856 
  533000    9.3632372   -1.7454275  0.044780856   -1.7006467 
  534000    9.0016675   -1.7458558  0.043051603   -1.7028042 
  535000    9.9030062   -1.7577673  0.047362368    -1.710405 
  536000    10.984963   -1.7434305   0.05253696   -1.6908936 
  537000    9.1814188   -1.7413951  0.043911286   -1.6974838 
  538000    8.6556383   -1.7449589  0.041396675   -1.7035622 
  539000    9.3716562   -1.7550699   0.04482112   -1.7102488 
  540000    7.7008115   -1.7386595  0.036830096   -1.7018294 
  541000    10.072717   -1.7300597   0.04817403   -1.6818857 
  542000    14.426657   -1.7324752  0.068997294   -1.6634779 
  543000    10.907818   -1.7367401  0.052168009    -1.684572 
  544000    14.547599   -1.7264947  0.069575716    -1.656919 
  545000    12.758891   -1.7210769  0.061020996   -1.6600559 
  546000     11.22139   -1.7319508  0.053667704   -1.6782831 
  547000    13.520671   -1.7378841  0.064664306   -1.6732198 
  548000    13.683392    -1.732627  0.065442537   -1.6671845 
  549000    14.594314   -1.7281404  0.069799138   -1.6583413 
  550000    11.138764   -1.7225564  0.053272537   -1.6692839 
  551000    12.586106   -1.7355009  0.060194632   -1.6753063 
  552000    11.011504   -1.7143989  0.052663899    -1.661735 
  553000    13.629874   -1.7264779  0.065186579   -1.6612913 
  554000    12.069575   -1.7293819  0.057724256   -1.6716576 
  555000    10.788135   -1.7320311  0.051595607   -1.6804355 
  556000    9.9586446   -1.7277539  0.047628466   -1.6801255 
  557000    13.712976   -1.7188991  0.065584028   -1.6533151 
  558000    13.131753   -1.7126014  0.062804255   -1.6497971 
  559000    11.466234    -1.730318    0.0548387   -1.6754793 
  560000    12.654252   -1.7296987  0.060520547   -1.6691782 
  561000     11.66253   -1.7252652  0.055777513   -1.6694877 
  562000    12.961144   -1.7333815  0.061988297   -1.6713932 
  563000    12.079245   -1.7334097  0.057770504   -1.6756392 
  564000    12.926787   -1.7274368   0.06182398   -1.6656128 
  565000    11.894371   -1.7258523  0.056886319    -1.668966 
  566000      15.9461   -1.6958405  0.076264221   -1.6195763 
  567000    16.792188   -1.6780579  0.080310743   -1.5977472 
  568000    12.269698   -1.7287429  0.058681367   -1.6700616 
  569000    15.793166   -1.6956286  0.075532797   -1.6200958 
  570000    15.210864   -1.6861123  0.072747862   -1.6133644 
  571000    16.362085   -1.7218221  0.078253723   -1.6435683 
  572000      20.7531   -1.6922176  0.099254304   -1.5929633 
  573000    13.961021   -1.7128255  0.066770334   -1.6460552 
  574000    17.511826   -1.7064631  0.083752503   -1.6227106 
  575000    19.484271   -1.7091478  0.093185966   -1.6159619 
  576000    15.195712   -1.6997972  0.072675398   -1.6271218 
  577000    18.669757   -1.7274659  0.089290454   -1.6381755 
  578000    16.197097   -1.7136755  0.077464648   -1.6362109 
  579000    14.914861   -1.7037005  0.071332191   -1.6323683 
  580000    17.943433   -1.7171518  0.085816719    -1.631335 
  581000    12.439539   -1.7085009  0.059493654   -1.6490073 
  582000    18.554496   -1.6886264  0.088739202   -1.5998872 
  583000    16.990141   -1.7239202  0.081257479   -1.6426627 
  584000    16.690957   -1.6910997  0.079826593   -1.6112731 
  585000    18.375661   -1.7034994  0.087883904   -1.6156155 
  586000    16.819475   -1.7123008  0.080441246   -1.6318595 
  587000     13.64612   -1.7013119  0.065264282   -1.6360476 
  588000    14.476844   -1.6904353   0.06923732   -1.6211979 
  589000    13.184912   -1.6936149  0.063058494   -1.6305564 
  590000    15.024519   -1.7301331  0.071856646   -1.6582765 
  591000    13.913346   -1.6930009  0.066542322   -1.6264586 
  592000    17.472634   -1.7106994  0.083565064   -1.6271344 
  593000    14.184667   -1.7019137  0.067839948   -1.6340737 
  594000     13.78051   -1.6986472  0.065907015   -1.6327402 
  595000    13.869623   -1.7155749  0.066333212   -1.6492417 
  596000    17.640407   -1.6820672  0.084367459   -1.5976997 
  597000     15.25673   -1.7237929  0.072967223   -1.6508257 
  598000    11.792326   -1.6901237  0.056398276   -1.6337255 
  599000    13.288998   -1.7099878  0.063556299   -1.6464315 
  600000    19.981614   -1.7064746  0.095564576     -1.61091 
  601000     15.94219   -1.7179132  0.076245521   -1.6416677 
  602000    16.231191    -1.712129  0.077627707   -1.6345013 
  603000     18.54797    -1.700152  0.088707993   -1.6114441 
  604000    17.304504   -1.7250185   0.08276096   -1.6422576 
  605000    10.066803   -1.7298569  0.048145749   -1.6817111 
  606000    14.533481   -1.7278827  0.069508196   -1.6583745 
  607000    13.428288   -1.7241301  0.064222469   -1.6599077 
  608000    10.786754   -1.7431159  0.051589004   -1.6915269 
  609000    12.864174   -1.7215793  0.061524523   -1.6600548 
  610000    12.016015   -1.7387672  0.057468096   -1.6812991 
  611000    11.150574   -1.7339489  0.053329018   -1.6806199 
  612000    13.715941   -1.7336434  0.065598208   -1.6680452 
  613000    9.1149609   -1.7057505  0.043593443    -1.662157 
  614000     17.99589    -1.717522    0.0860676   -1.6314544 
  615000    17.614146    -1.694444  0.084241861   -1.6102022 
  616000    13.431221   -1.7132771  0.064236499   -1.6490406 
  617000    16.497781   -1.7111022  0.078902705   -1.6321995 
  618000    16.517946    -1.713251  0.078999145   -1.6342518 
  619000    13.251222   -1.6911201  0.063375632   -1.6277445 
  620000    19.394712   -1.7254141  0.092757639   -1.6326564 
  621000    15.912799   -1.7088314  0.076104956   -1.6327264 
  622000    12.758721   -1.7021294  0.061020184   -1.6411092 
  623000    15.332469   -1.7130863  0.073329456   -1.6397569 
  624000    21.185518    -1.707147   0.10132239   -1.6058246 
  625000    17.375675   -1.6896926  0.083101342   -1.6065912 
  626000    15.220919   -1.7010566  0.072795952   -1.6282607 
  627000    14.553902   -1.7165986  0.069605861   -1.6469927 
  628000    12.405207   -1.7358588  0.059329456   -1.6765294 
  629000    13.282111   -1.7191398  0.063523359   -1.6556165 
  630000    15.317689   -1.7375852  0.073258769   -1.6643265 
  631000    13.510329   -1.7277264  0.064614841   -1.6631115 
  632000     11.14522     -1.72764  0.053303412   -1.6743366 
  633000    10.809044   -1.7227408  0.051695608   -1.6710452 
  634000    11.437862   -1.7360002  0.054703008   -1.6812972 
  635000    13.023863   -1.7351395  0.062288258   -1.6728513 
  636000    11.101256    -1.728194  0.053093147   -1.6751008 
  637000    12.863588   -1.7204128  0.061521723   -1.6588911 
  638000       10.964   -1.7259175  0.052436703   -1.6734808 
  639000    9.9550726   -1.7394937  0.047611383   -1.6918824 
  640000    11.963588   -1.7347491  0.057217359   -1.6775317 
  641000     10.93394   -1.7239815   0.05229294   -1.6716885 
  642000    12.346008   -1.7432565  0.059046329   -1.6842101 
  643000      12.4632   -1.7254283  0.059606818   -1.6658215 
  644000    13.951147   -1.7190516   0.06672311   -1.6523285 
  645000    15.982075   -1.7294167  0.076436278   -1.6529804 
  646000    10.148513   -1.7597352  0.048536538   -1.7111987 
  647000    8.1678466   -1.7584666   0.03906375   -1.7194029 
  648000    5.9197739   -1.7600092  0.028312061   -1.7316971 
  649000     6.174777   -1.7540462  0.029531645   -1.7245145 
  650000    6.8677367   -1.7596882  0.032845812   -1.7268424 
  651000    6.9290683   -1.7606489  0.033139138   -1.7275098 
  652000    6.3922285    -1.767718  0.030571634   -1.7371463 
  653000    5.1818236   -1.7654531  0.024782721   -1.7406704 
  654000    6.7068635   -1.7551443  0.032076415   -1.7230678 
  655000    5.6635841   -1.7674663  0.027086801   -1.7403795 
  656000    5.8196715   -1.7619268  0.027833308   -1.7340934 
  657000    7.6158985   -1.7622872  0.036423989   -1.7258632 
  658000    5.0463712   -1.7601372  0.024134903   -1.7360023 
  659000    6.8060204   -1.7715391  0.032550646   -1.7389884 
  660000    5.7969961   -1.7584961   0.02772486   -1.7307712 
  661000    6.8979237    -1.768989  0.032990185   -1.7359989 
  662000    5.8104198   -1.7553584  0.027789061   -1.7275693 
  663000     4.756202   -1.7642207  0.022747132   -1.7414736 
  664000    8.1705761   -1.7598635  0.039076805   -1.7207867 
  665000    8.2599074   -1.7651381  0.039504043   -1.7256341 
  666000    6.8360343   -1.7602129  0.032694191   -1.7275187 
  667000    6.4588629   -1.7663458  0.030890322   -1.7354555 
  668000    4.4643016    -1.770663  0.021351082   -1.7493119 
  669000    5.0613187   -1.7704504  0.024206391    -1.746244 
  670000    4.7738041   -1.7683152  0.022831317   -1.7454839 
  671000    5.7243174   -1.7553619  0.027377265   -1.7279846 
  672000    5.4849076    -1.765841  0.026232258   -1.7396087 
  673000    5.7209735   -1.7592168  0.027361273   -1.7318556 
  674000     5.724849   -1.7592903  0.027379808   -1.7319105 
  675000    7.4676696   -1.7633187  0.035715066   -1.7276036 
  676000    8.1459586   -1.7568788  0.038959068   -1.7179197 
  677000    7.0104697   -1.7554936   0.03352845   -1.7219652 
  678000    6.9908922   -1.7652936  0.033434818   -1.7318588 
  679000    7.3477651   -1.7553882  0.035141608   -1.7202466 
  680000    7.1618938   -1.7671417  0.034252655    -1.732889 
  681000     7.533885   -1.7606394  0.036031749   -1.7246076 
  682000    6.1211837   -1.7725402  0.029275328   -1.7432648 
  683000    5.7197558   -1.7593341  0.027355449   -1.7319787 
  684000    5.2352195    -1.758842  0.025038094   -1.7338039 
  685000    7.4927258   -1.7640089    0.0358349    -1.728174 
  686000    7.3575524   -1.7716183  0.035188417   -1.7364299 
  687000    5.8716971   -1.7602895  0.028082127   -1.7322074 
  688000    5.8580587   -1.7687435    0.0280169   -1.7407266 
  689000    4.5028879   -1.7637834  0.021535626   -1.7422478 
  690000    6.1701246   -1.7710026  0.029509394   -1.7414932 
  691000    4.3178851   -1.7724714  0.020650827   -1.7518206 
  692000    5.1206356   -1.7762927  0.024490082   -1.7518026 
  693000    4.4181716   -1.7659608   0.02113046   -1.7448303 
  694000    4.7499157   -1.7658153  0.022717068   -1.7430982 
  695000     4.449157   -1.7723125  0.021278651   -1.7510339 
  696000    4.0816278   -1.7737502  0.019520896   -1.7542293 
  697000    4.9910914   -1.7702857   0.02387052   -1.7464152 
  698000    6.7716525   -1.7701644  0.032386277   -1.7377781 
  699000    5.4635763   -1.7715635  0.026130239   -1.7454332 
  700000    4.7380982   -1.7726257  0.022660549   -1.7499652 
  701000    5.0210208   -1.7742979  0.024013661   -1.7502842 
  702000    5.9429398   -1.7693593  0.028422855   -1.7409364 
  703000    5.2259749   -1.7735718   0.02499388    -1.748578 
  704000     5.599885   -1.7663955  0.026782152   -1.7396134 
  705000    6.3448665   -1.7775202  0.030345119   -1.7471751 
  706000    5.5557885   -1.7712182  0.026571255    -1.744647 
  707000    4.2019185   -1.7712067  0.020096202   -1.7511105 
  708000    5.9549484    -1.762604  0.028480287   -1.7341237 
  709000    5.1729142   -1.7741145  0.024740111   -1.7493743 
  710000    4.9352568   -1.7666054  0.023603484   -1.7430019 
  711000    4.2256758   -1.7710724  0.020209824   -1.7508626 
  712000    5.5028481   -1.7674813  0.026318061   -1.7411632 
  713000     4.410491   -1.7712121  0.021093726   -1.7501183 
  714000    3.6715945    -1.767773  0.017559861   -1.7502131 
  715000    4.0570032   -1.7697601  0.019403127    -1.750357 
  716000    6.6873162   -1.7602349  0.031982928    -1.728252 
  717000    6.6190364   -1.7629727  0.031656371   -1.7313164 
  718000    6.5014999   -1.7555882  0.031094238   -1.7244939 
  719000    5.8072239   -1.7676347  0.027773776   -1.7398609 
  720000    5.5784047   -1.7706727   0.02667942   -1.7439933 
  721000    4.7429327   -1.7712647   0.02268367    -1.748581 
  722000    5.0644156   -1.7668706  0.024221202   -1.7426494 
  723000    5.1575325   -1.7753809  0.024666546   -1.7507143 
  724000    4.1659502   -1.7707141  0.019924179     -1.75079 
  725000    5.5147545    -1.776141  0.026375005    -1.749766 
  726000    5.5924037   -1.7666297  0.026746372   -1.7398833 
  727000     4.405045   -1.7699176   0.02106768   -1.7488499 
  728000    5.7478606   -1.7626216  0.027489864   -1.7351317 
  729000    6.0375422   -1.7523167  0.028875303   -1.7234414 
  730000    6.2868741   -1.7630044  0.030067763   -1.7329366 
  731000    6.4127775    -1.762064  0.030669912   -1.7313941 
  732000    6.1690589   -1.7734488  0.029504298   -1.7439445 
  733000     4.765908   -1.7603987  0.022793552   -1.7376051 
  734000    4.5313576   -1.7749339  0.021671786   -1.7532621 
  735000    4.9005188   -1.7710292  0.023437345   -1.7475919 
  736000    6.4906127   -1.7728218  0.031042169   -1.7417797 
  737000    4.7485686   -1.7640177  0.022710625   -1.7413071 
  738000    6.3251343   -1.7696657  0.030250748    -1.739415 
  739000    6.9321704   -1.7601697  0.033153974   -1.7270157 
  740000    6.0229532    -1.768903  0.028805529   -1.7400975 
  741000    3.5023018   -1.7723572  0.016750198    -1.755607 
  742000    4.4149015   -1.7736772   0.02111482   -1.7525624 
  743000    5.7102586   -1.7691864  0.027310028   -1.7418764 
  744000    4.8516863   -1.7728346  0.023203798   -1.7496308 
  745000    5.3235163   -1.7691593  0.025460384   -1.7436989 
  746000    3.9988894   -1.7706783   0.01912519   -1.7515531 
  747000    4.8119565   -1.7726417  0.023013785    -1.749628 
  748000    5.8542835   -1.7717122  0.027998845   -1.7437133 
  749000     5.534935   -1.7764976  0.026471521   -1.7500261 
  750000    5.7909451   -1.7749849  0.027695921    -1.747289 
  751000     5.167333   -1.7718945  0.024713418   -1.7471811 
  752000    4.6700543   -1.7742372   0.02233512   -1.7519021 
  753000    4.9199473    -1.773609  0.023530265   -1.7500787 
  754000    5.5505468   -1.7779653  0.026546186   -1.7514191 
  755000    5.1710204   -1.7689312  0.024731053   -1.7442002 
  756000    4.7013281   -1.7696712  0.022484691   -1.7471865 
  757000    4.4189629   -1.7715015  0.021134244   -1.7503673 
  758000    3.9905245    -1.777598  0.019085184   -1.7585128 
  759000     4.733297   -1.7737741  0.022637586   -1.7511365 
  760000    4.3213938   -1.7673664  0.020667608   -1.7466988 
  761000    4.2422562   -1.7732912  0.020289122    -1.753002 
  762000    5.0115352   -1.7706186  0.023968295   -1.7466504 
  763000    4.0281355   -1.7781187  0.019265063   -1.7588536 
  764000    5.8772216   -1.7720513  0.028108549   -1.7439427 
  765000    5.0685433   -1.7681307  0.024240944   -1.7438898 
  766000    4.4894133   -1.7717175  0.021471182   -1.7502463 
  767000    5.0378564   -1.7691362   0.02409418    -1.745042 
  768000    6.7191861   -1.7576206   0.03213535   -1.7254852 
  769000    6.5965414    -1.764047  0.031548786   -1.7324982 
  770000    5.6554462   -1.7640399  0.027047881    -1.736992 
  771000    4.9722626    -1.767307  0.023780469   -1.7435266 
  772000    8.1119711   -1.7604934  0.038796519   -1.7216969 
  773000    6.6509153   -1.7551585  0.031808836   -1.7233496 
  774000    6.2604138   -1.7608824  0.029941214   -1.7309412 
  775000    5.9785913   -1.7597242  0.028593362   -1.7311308 
  776000    6.6909216   -1.7624018  0.032000171   -1.7304016 
  777000    5.3228829   -1.7659945  0.025457355   -1.7405371 
  778000    6.7339867   -1.7600707  0.032206136   -1.7278646 
  779000    8.2075339   -1.7548115   0.03925356   -1.7155579 
  780000    6.5469677   -1.7689577  0.031311694    -1.737646 
  781000    6.3447436   -1.7560208  0.030344532   -1.7256763 
  782000    8.2297482   -1.7636036  0.039359803   -1.7242438 
  783000    8.1346589   -1.7625143  0.038905026   -1.7236092 
  784000    6.4293309   -1.7649317  0.030749081   -1.7341826 
  785000    5.1866349   -1.7721861  0.024805731   -1.7473804 
  786000    5.1741263   -1.7692288  0.024745908   -1.7444829 
  787000    4.5879029   -1.7650434  0.021942221   -1.7431012 
  788000    5.1670707   -1.7678154  0.024712164   -1.7431032 
  789000    7.1460977   -1.7546555  0.034177108   -1.7204784 
  790000    5.8714549   -1.7626293  0.028080969   -1.7345483 
  791000    10.342273   -1.7475249  0.049463217   -1.6980616 
  792000    9.8314363   -1.7491361  0.047020076   -1.7021161 
  793000    9.5556097   -1.7534052  0.045700901   -1.7077043 
  794000    6.0303377    -1.763462  0.028840846   -1.7346212 
  795000    7.3788431   -1.7548877  0.035290242   -1.7195975 
  796000    6.0031211   -1.7673351  0.028710679   -1.7386244 
  797000    5.3283204   -1.7654196   0.02548336   -1.7399362 
  798000    5.6598805   -1.7706137  0.027069088   -1.7435446 
  799000    4.2528828   -1.7733316  0.020339945   -1.7529917 
  800000    4.7174595   -1.7752719  0.022561841   -1.7527101 
  801000    5.5491029   -1.7690093   0.02653928     -1.74247 
  802000    4.4485946   -1.7746783  0.021275961   -1.7534024 
  803000    4.7765811   -1.7733272  0.022844598   -1.7504826 
  804000    5.8223567   -1.7736479  0.027846151   -1.7458017 
  805000     4.795842   -1.7645018  0.022936716   -1.7415651 
  806000    5.8523901   -1.7581814  0.027989789   -1.7301916 
  807000    6.9871996   -1.7550027  0.033417158   -1.7215855 
  808000    6.9472856   -1.7616932  0.033226264   -1.7284669 
  809000    7.0997437   -1.7525932  0.033955414   -1.7186377 
  810000    5.8409146   -1.7625765  0.027934907   -1.7346416 
  811000    4.5539078   -1.7516317  0.021779635   -1.7298521 
  812000    9.0288719   -1.7558268  0.043181712    -1.712645 
  813000    5.8707172   -1.7631511  0.028077441   -1.7350737 
  814000    5.9211339   -1.7642516  0.028318565    -1.735933 
  815000     6.277207   -1.7572958  0.030021529   -1.7272742 
  816000     8.908189   -1.7467326   0.04260453   -1.7041281 
  817000    9.8876628   -1.7530388  0.047288987   -1.7057498 
  818000     7.602382   -1.7509738  0.036359345   -1.7146145 
  819000    8.4037014   -1.7515847  0.040191756    -1.711393 
  820000    7.8368879   -1.7480139  0.037480899   -1.7105331 
  821000    8.9383579   -1.7501238  0.042748817    -1.707375 
  822000    8.8055645   -1.7580387  0.042113716    -1.715925 
  823000    8.2604427    -1.754736  0.039506603   -1.7152294 
  824000    6.5667118   -1.7476597  0.031406122   -1.7162536 
  825000    9.7387136   -1.7342663  0.046576619   -1.6876897 
  826000    9.8451399   -1.7537691  0.047085616   -1.7066834 
  827000    9.7466738   -1.7407066   0.04661469   -1.6940919 
  828000    11.931215   -1.7072908  0.057062529   -1.6502283 
  829000    13.159545   -1.7236997  0.062937175   -1.6607625 
  830000    13.305979   -1.7385454  0.063637514   -1.6749079 
  831000    12.262887   -1.7269678  0.058648795    -1.668319 
  832000    12.889914   -1.7389948  0.061647631   -1.6773472 
  833000    11.121011   -1.7317609  0.053187631   -1.6785733 
  834000    10.670629    -1.725375  0.051033619   -1.6743414 
  835000    10.931058   -1.7369141  0.052279157   -1.6846349 
  836000    11.938071   -1.7370795  0.057095321   -1.6799842 
  837000    14.034423   -1.7252479  0.067121388   -1.6581265 
  838000     13.59589   -1.7046872   0.06502405   -1.6396631 
  839000    13.127649   -1.7053215  0.062784629   -1.6425369 
  840000    18.505323   -1.6935226  0.088504029   -1.6050186 
  841000    13.392287   -1.7148047   0.06405029   -1.6507544 
  842000       17.146   -1.7081842  0.082002892   -1.6261813 
  843000    18.003746   -1.7316545  0.086105173   -1.6455493 
  844000    12.166303   -1.7109206   0.05818687   -1.6527337 
  845000    13.359041   -1.7380581  0.063891289   -1.6741668 
  846000    12.213331   -1.7398588  0.058411784    -1.681447 
  847000    13.920289   -1.7287677  0.066575527   -1.6621922 
  848000    12.493558   -1.7229688  0.059752009   -1.6632168 
  849000     10.70638   -1.7263264  0.051204604   -1.6751218 
  850000     11.74931    -1.729656  0.056192547   -1.6734634 
  851000    12.431092   -1.7246264  0.059453254   -1.6651732 
  852000    14.653224   -1.6889153  0.070080879   -1.6188344 
  853000    13.848658   -1.7329733  0.066232944   -1.6667403 
  854000    16.987105   -1.7093447  0.081242959   -1.6281018 
  855000    22.108058   -1.7126256   0.10573456    -1.606891 
  856000    16.371153   -1.7040166   0.07829709   -1.6257195 
  857000    13.924757   -1.7197608  0.066596897   -1.6531639 
  858000    13.168504    -1.696019  0.062980022   -1.6330389 
  859000     21.44083   -1.7073348   0.10254346   -1.6047914 
  860000    20.564228   -1.7068506  0.098350999   -1.6084996 
  861000    14.549336   -1.7071367  0.069584025   -1.6375527 
  862000    18.452082    -1.712787  0.088249394   -1.6245376 
  863000    15.801827   -1.7220155  0.075574217   -1.6464413 
  864000    17.785587   -1.7022899  0.085061801   -1.6172281 
  865000    17.540819   -1.7183892  0.083891164    -1.634498 
  866000    16.100204   -1.7082294  0.077001242   -1.6312282 
  867000    10.383371   -1.7065825  0.049659776   -1.6569228 
  868000    18.257297   -1.7106226  0.087317811   -1.6233048 
  869000    12.746418   -1.7009231  0.060961344   -1.6399618 
  870000    12.175806   -1.7011712   0.05823232   -1.6429389 
  871000    12.955438   -1.7144689  0.061961009   -1.6525078 
  872000    17.861524   -1.7056572  0.085424977   -1.6202322 
  873000    15.785234   -1.6890051  0.075494863   -1.6135102 
  874000    12.621878   -1.7175522  0.060365713   -1.6571865 
  875000    12.915804   -1.6856679   0.06177145   -1.6238964 
  876000    13.876167   -1.7102563  0.066364509   -1.6438918 
  877000    14.548345   -1.7181183  0.069579284    -1.648539 
  878000    10.895354   -1.7017317  0.052108396   -1.6496233 
  879000    16.172989   -1.7098515  0.077349348   -1.6325022 
  880000    18.139447   -1.7207103  0.086754178   -1.6339561 
  881000    19.159233   -1.6899534  0.091631432    -1.598322 
  882000     16.60736   -1.7217801  0.079426783   -1.6423533 
  883000    13.363704   -1.7360496  0.063913592    -1.672136 
  884000    11.898345     -1.73317  0.056905329   -1.6762647 
  885000     10.89697   -1.7165575  0.052116127   -1.6644414 
  886000     12.69863   -1.7504797  0.060732789   -1.6897469 
  887000    11.458248   -1.7292425  0.054800508    -1.674442 
  888000    14.382665   -1.7056044  0.068786898   -1.6368175 
  889000    14.423525   -1.7120143  0.068982315    -1.643032 
  890000    18.024459   -1.6979141  0.086204237   -1.6117099 
  891000     16.06961   -1.7209196  0.076854924   -1.6440647 
  892000    15.796774   -1.7066258  0.075550054   -1.6310757 
  893000    15.161675   -1.7090338  0.072512609   -1.6365211 
  894000    17.106821   -1.7109775  0.081815517    -1.629162 
  895000    16.081932   -1.6998967  0.076913854   -1.6229829 
  896000    15.595328   -1.6900025  0.074586609   -1.6154159 
  897000     12.78042   -1.7223799  0.061123961    -1.661256 
  898000    18.281393   -1.6796022  0.087433052   -1.5921692 
  899000    16.565941   -1.7250844  0.079228691   -1.6458557 
  900000    17.679427   -1.7147662  0.084554075   -1.6302121 
  901000    14.045562   -1.7036091  0.067174662   -1.6364345 
  902000    18.741244   -1.7180536  0.089632349   -1.6284213 
  903000    18.260201   -1.6961021  0.087331702   -1.6087704 
  904000    16.358288   -1.6871459  0.078235564   -1.6089103 
  905000     23.23508   -1.6462574   0.11112469   -1.5351327 
  906000    21.432969    -1.673385   0.10250586   -1.5708792 
  907000    14.660197   -1.7241265  0.070114232   -1.6540123 
  908000    20.089817   -1.6974619  0.096082067   -1.6013798 
  909000    16.448668    -1.689258  0.078667817   -1.6105902 
  910000    15.592268   -1.7310669  0.074571977   -1.6564949 
  911000     9.048567    -1.723959  0.043275906   -1.6806831 
  912000    11.336975   -1.7270923  0.054220503   -1.6728718 
  913000    13.131066    -1.721537  0.062800968   -1.6587361 
  914000    11.880836   -1.7287223  0.056821586   -1.6719007 
  915000    9.6364619    -1.749074  0.046087587   -1.7029864 
  916000     8.453382   -1.7447293  0.040429359   -1.7042999 
  917000    10.614072   -1.7395203  0.050763128   -1.6887572 
  918000    9.4202445   -1.7392856    0.0450535   -1.6942321 
  919000    6.4749927   -1.7527443  0.030967464   -1.7217768 
  920000    9.7820305   -1.7537358  0.046783787   -1.7069521 
  921000    10.831371   -1.7518186  0.051802391   -1.7000162 
  922000     10.68135   -1.7454322  0.051084897   -1.6943473 
  923000    11.091755   -1.7525283  0.053047708   -1.6994806 
  924000    11.979615   -1.7607813  0.057294011   -1.7034873 
  925000    8.0186791   -1.7466748  0.038350338   -1.7083245 
  926000    8.9424815   -1.7450107  0.042768539   -1.7022422 
  927000    10.378994   -1.7463456  0.049638841   -1.6967068 
  928000    8.0961749   -1.7488744  0.038720971   -1.7101534 
  929000    7.5865565   -1.7504337  0.036283657     -1.71415 
  930000    7.4443254   -1.7448326   0.03560342   -1.7092292 
  931000    8.6822821   -1.7586813  0.041524103   -1.7171572 
  932000    6.2893674   -1.7645855  0.030079688   -1.7345059 
  933000    6.0004244   -1.7535913  0.028697782   -1.7248935 
  934000    6.5235965   -1.7537474  0.031199918   -1.7225474 
  935000    5.5446675   -1.7612424  0.026518067   -1.7347243 
  936000    6.0705428   -1.7645582  0.029033132   -1.7355251 
  937000    5.9011016   -1.7661518  0.028222758    -1.737929 
  938000    5.9802144   -1.7652576  0.028601125   -1.7366565 
  939000    6.2326276   -1.7644085  0.029808323   -1.7346002 
  940000    5.8036609   -1.7632613  0.027756736   -1.7355046 
  941000    6.1493023   -1.7615388  0.029409809    -1.732129 
  942000    5.7038096   -1.7720151  0.027279184   -1.7447359 
  943000    8.4770838   -1.7621724  0.040542716   -1.7216297 
  944000    8.6650297   -1.7367774  0.041441591   -1.6953358 
  945000    9.7359503   -1.7496029  0.046563403   -1.7030395 
  946000    9.2389942   -1.7327014  0.044186648   -1.6885148 
  947000    13.754706    -1.739276  0.065783604   -1.6734924 
  948000    11.148708   -1.7258613  0.053320092   -1.6725412 
  949000    15.270284   -1.7287414   0.07303205   -1.6557093 
  950000    12.202396   -1.7272834  0.058359489   -1.6689239 
  951000    13.550682   -1.7348591  0.064807835   -1.6700512 
  952000     12.06901   -1.7413074  0.057721551   -1.6835858 
  953000     11.11972   -1.7228505  0.053181456   -1.6696691 
  954000    18.471625    -1.713498  0.088342862   -1.6251551 
  955000    17.844912   -1.7107449  0.085345528   -1.6253994 
  956000    12.099766   -1.7395897  0.057868646   -1.6817211 
  957000     10.65957   -1.7600287   0.05098073   -1.7090479 
  958000     5.450536   -1.7698826  0.026067872   -1.7438147 
  959000    3.6994155   -1.7738471  0.017692918   -1.7561542 
  960000    6.2752526   -1.7625235  0.030012182   -1.7325113 
  961000    4.6456845   -1.7783177  0.022218569   -1.7560991 
  962000     5.626879   -1.7736389  0.026911254   -1.7467276 
  963000    5.6228918   -1.7683694  0.026892185   -1.7414773 
  964000    4.8806564   -1.7657336  0.023342351   -1.7423913 
  965000     5.414171   -1.7774631  0.025893952   -1.7515692 
  966000    6.3004014   -1.7664448   0.03013246   -1.7363123 
  967000    4.7191015   -1.7768563  0.022569694   -1.7542866 
  968000    4.6981438   -1.7676691  0.022469462   -1.7451997 
  969000    6.4759432   -1.7695146   0.03097201   -1.7385426 
  970000    4.4083355   -1.7637209  0.021083417   -1.7426375 
  971000    5.3468614   -1.7760955  0.025572035   -1.7505235 
  972000    4.4580306   -1.7782197   0.02132109   -1.7568986 
  973000    4.2534249   -1.7784667  0.020342538   -1.7581242 
  974000    5.2765593   -1.7684297  0.025235807   -1.7431939 
  975000    5.5833525   -1.7697668  0.026703083   -1.7430637 
  976000    4.1959145   -1.7661327  0.020067487   -1.7460652 
  977000    4.0107844   -1.7720105  0.019182079   -1.7528284 
  978000    4.6284794   -1.7625795  0.022136283   -1.7404432 
  979000     5.287197   -1.7778076  0.025286682    -1.752521 
  980000     4.310794   -1.7569448  0.020616913   -1.7363279 
  981000    2.9300717   -1.7724517  0.014013435   -1.7584383 
  982000    5.9537109    -1.765805  0.028474369   -1.7373306 
  983000    4.6209057   -1.7697394  0.022100061   -1.7476393 
  984000    4.4816867   -1.7725561  0.021434229   -1.7511219 
  985000    5.4649672    -1.770191  0.026136891   -1.7440541 
  986000    6.8422463   -1.7588768  0.032723901   -1.7261529 
  987000    7.8382311   -1.7630342  0.037487323   -1.7255469 
  988000    7.6656513   -1.7529158  0.036661938   -1.7162538 
  989000     5.581806   -1.7639658  0.026695687   -1.7372701 
  990000      5.50063   -1.7576798  0.026307452   -1.7313723 
  991000    5.7179608   -1.7649571  0.027346865   -1.7376102 
  992000    7.1396335   -1.7586168  0.034146192   -1.7244706 
  993000    6.2866278   -1.7693238  0.030066585   -1.7392572 
  994000    5.6110641   -1.7591524  0.026835618   -1.7323168 
  995000    6.0294374   -1.7627739   0.02883654   -1.7339373 
  996000    7.6478975   -1.7556576  0.036577029   -1.7190806 
  997000    5.4188228   -1.7525541    0.0259162   -1.7266379 
  998000    6.0983239   -1.7645751  0.029165999   -1.7354091 
  999000     6.283761   -1.7628246  0.030052875   -1.7327717 
 1000000    5.3163598   -1.7617473  0.025426157   -1.7363211 
 1001000    7.2419162   -1.7613659  0.034635372   -1.7267305 
 1002000    6.1932805   -1.7581125   0.02962014   -1.7284924 
 1003000    5.7399938   -1.7687461   0.02745224   -1.7412939 
 1004000    4.9393323   -1.7770167  0.023622976   -1.7533938 
 1005000    4.9502358   -1.7681149  0.023675123   -1.7444398 
 1006000    5.0246514   -1.7712366  0.024031025   -1.7472056 
 1007000    5.3174508   -1.7712366  0.025431375   -1.7458052 
 1008000      6.78943   -1.7739372    0.0324713   -1.7414659 
 1009000    4.1852658   -1.7758383  0.020016558   -1.7558218 
 1010000     5.155232   -1.7749967  0.024655543   -1.7503412 
 1011000    5.2768787   -1.7732148  0.025237334   -1.7479774 
 1012000    4.9161151   -1.7727518  0.023511937   -1.7492399 
 1013000    4.4547839   -1.7683003  0.021305562   -1.7469947 
 1014000    3.9333713   -1.7753383  0.018811841   -1.7565264 
 1015000    4.8789849   -1.7676905  0.023334357   -1.7443562 
 1016000    4.8512289   -1.7701944   0.02320161   -1.7469928 
 1017000    4.5674455   -1.7712588  0.021844381   -1.7494144 
 1018000    6.2124585   -1.7703073  0.029711862   -1.7405955 
 1019000    6.5046715   -1.7608967  0.031109407   -1.7297873 
 1020000    5.6832379   -1.7585918  0.027180798    -1.731411 
 1021000    5.7744745   -1.7539877  0.027617148   -1.7263706 
 1022000    10.971698   -1.7432995  0.052473523    -1.690826 
 1023000    9.5805228   -1.7387771  0.045820051    -1.692957 
 1024000    6.1468947   -1.7465967  0.029398295   -1.7171985 
 1025000    9.8734336   -1.7496379  0.047220934    -1.702417 
 1026000    10.921722    -1.748682  0.052234505   -1.6964475 
 1027000    9.3334029   -1.7507887   0.04463817   -1.7061506 
 1028000    9.0138898   -1.7366684  0.043110058   -1.6935583 
 1029000    9.2737792   -1.7541513  0.044353012   -1.7097982 
 1030000    8.6814221   -1.7489194   0.04151999   -1.7073994 
 1031000    8.1883939   -1.7411627   0.03916202   -1.7020007 
 1032000     9.158022   -1.7482324  0.043799388    -1.704433 
 1033000    9.7501654   -1.7571645  0.046631389   -1.7105331 
 1034000    8.3427831   -1.7272635  0.039900406   -1.6873631 
 1035000     9.701714   -1.7411269  0.046399664   -1.6947273 
 1036000    9.1066918     -1.74776  0.043553895   -1.7042061 
 1037000    7.0044691    -1.756469  0.033499752   -1.7229692 
 1038000    8.2373445    -1.759328  0.039396133   -1.7199319 
 1039000    7.3035481   -1.7631141  0.034930135    -1.728184 
 1040000    6.6797906   -1.7587596  0.031946936   -1.7268127 
 1041000    5.1352986   -1.7552615  0.024560209   -1.7307012 
 1042000    5.9258325   -1.7676592  0.028341037   -1.7393182 
 1043000    8.2462415   -1.7655821  0.039438684   -1.7261435 
 1044000    4.3099711   -1.7708332  0.020612977   -1.7502203 
 1045000    4.0655018   -1.7685383  0.019443772   -1.7490946 
 1046000    4.3555127   -1.7686812  0.020830785   -1.7478504 
 1047000    4.6562341   -1.7639592  0.022269023   -1.7416902 
 1048000    7.3609725   -1.7688366  0.035204774   -1.7336318 
 1049000    3.8980423   -1.7687989  0.018642876   -1.7501561 
 1050000    4.2348052    -1.771729  0.020253487   -1.7514755 
 1051000    5.5408461    -1.768843  0.026499791   -1.7423432 
 1052000    5.4187106   -1.7739431  0.025915663   -1.7480275 
 1053000    4.6996662   -1.7729135  0.022476743   -1.7504367 
 1054000    5.8222867   -1.7645234  0.027845816   -1.7366776 
 1055000    6.8516549    -1.762086  0.032768899   -1.7293171 
 1056000    6.8143572   -1.7688751  0.032590518   -1.7362846 
 1057000    4.0814628   -1.7650691  0.019520108    -1.745549 
 1058000    5.2353693   -1.7640292   0.02503881   -1.7389903 
 1059000     3.758894   -1.7716137  0.017977382   -1.7536363 
 1060000    4.7807825   -1.7733625  0.022864692   -1.7504978 
 1061000    4.0554431   -1.7708047  0.019395665   -1.7514091 
 1062000    4.8830166   -1.7709884  0.023353639   -1.7476348 
 1063000     4.893018   -1.7741841  0.023401472   -1.7507826 
 1064000     5.038745   -1.7736198   0.02409843   -1.7495214 
 1065000     4.833533   -1.7720214  0.023116978   -1.7489044 
 1066000     6.035768    -1.767615  0.028866817   -1.7387482 
 1067000    3.8175798   -1.7700776  0.018258054   -1.7518195 
 1068000    4.2133681     -1.77201  0.020150961   -1.7518591 
 1069000    4.0589377   -1.7721416  0.019412378   -1.7527292 
 1070000    4.4222684   -1.7672631  0.021150053   -1.7461131 
 1071000     5.609552   -1.7729402  0.026828386   -1.7461119 
 1072000    4.1416772   -1.7667359   0.01980809   -1.7469278 
 1073000    5.6702777   -1.7751089  0.027118814     -1.74799 
 1074000    5.6630737   -1.7716447   0.02708436   -1.7445603 
 1075000    4.0442051   -1.7740148  0.019341918   -1.7546729 
 1076000    5.3332339   -1.7738783   0.02550686   -1.7483715 
 1077000     4.934043   -1.7719992  0.023597679   -1.7484015 
 1078000    5.8753123   -1.7705442  0.028099418   -1.7424448 
 1079000    5.1527752   -1.7780918  0.024643793    -1.753448 
 1080000    4.7334141     -1.77142  0.022638146   -1.7487818 
 1081000    5.4012132   -1.7705064  0.025831979   -1.7446745 
 1082000     4.937578   -1.7700169  0.023614586   -1.7464023 
 1083000    4.6867511   -1.7686498  0.022414975   -1.7462348 
 1084000    4.5360862   -1.7694171  0.021694401   -1.7477227 
 1085000    4.5257606   -1.7766915  0.021645018   -1.7550465 
 1086000     4.846672   -1.7697123  0.023179817   -1.7465324 
 1087000     4.287534   -1.7707728  0.020505669   -1.7502672 
 1088000     4.768495   -1.7650157  0.022805925   -1.7422098 
 1089000    7.8390035   -1.7676773  0.037491017   -1.7301863 
 1090000    6.8140509   -1.7610737  0.032589053   -1.7284846 
 1091000    8.8056889   -1.7461013  0.042114311    -1.703987 
 1092000    8.7372552   -1.7480764  0.041787019   -1.7062894 
 1093000    10.526424   -1.7543782  0.050343942   -1.7040342 
 1094000    8.1140277   -1.7484924  0.038806355   -1.7096861 
 1095000    9.6619323   -1.7456442  0.046209402   -1.6994348 
 1096000    9.2568744   -1.7573469  0.044272163   -1.7130748 
 1097000    9.3803468   -1.7518317  0.044862684    -1.706969 
 1098000    8.8262725   -1.7494326  0.042212755   -1.7072198 
 1099000    7.8232927   -1.7476939  0.037415878    -1.710278 
 1100000    9.2871803   -1.7564879  0.044417104   -1.7120708 
 1101000    6.0139636   -1.7603944  0.028762535   -1.7316319 
 1102000    6.3475834   -1.7613247  0.030358114   -1.7309666 
 1103000     7.458264   -1.7594375  0.035670083   -1.7237674 
 1104000    8.9167581   -1.7633872  0.042645514   -1.7207416 
 1105000    4.9599853   -1.7582498  0.023721751    -1.734528 
 1106000    8.0797618   -1.7479376  0.038642474   -1.7092951 
 1107000    9.4623272   -1.7511196  0.045254766   -1.7058648 
 1108000    6.4148053   -1.7638231   0.03067961   -1.7331435 
 1109000    7.8901657   -1.7654856  0.037735707   -1.7277499 
 1110000     5.484801   -1.7707831  0.026231748   -1.7445514 
 1111000    6.4729479   -1.7621859  0.030957685   -1.7312282 
 1112000     5.851622   -1.7565939  0.027986116   -1.7286077 
 1113000     7.164252   -1.7523487  0.034263934   -1.7180848 
 1114000     8.635695   -1.7523453  0.041301294    -1.711044 
 1115000    7.5619557   -1.7462201  0.036166001   -1.7100541 
 1116000    6.9891523   -1.7459728  0.033426497   -1.7125463 
 1117000    10.087772   -1.7423572  0.048246034   -1.6941112 
 1118000    11.323937   -1.7378655  0.054158148   -1.6837074 
 1119000    14.655801   -1.7295557  0.070093207   -1.6594625 
 1120000    12.457966   -1.7317283  0.059581786   -1.6721465 
 1121000    12.619121   -1.7436169  0.060352528   -1.6832644 
 1122000     10.19247   -1.7547559  0.048746763   -1.7060091 
 1123000    10.164586   -1.7520895  0.048613408   -1.7034761 
 1124000    6.1926271   -1.7671877  0.029617016   -1.7375707 
 1125000     3.947069   -1.7712282  0.018877352   -1.7523508 
 1126000    4.6905264   -1.7682609  0.022433031   -1.7458279 
 1127000    6.1955275    -1.775439  0.029630887   -1.7458081 
 1128000    5.1461933   -1.7685001  0.024612315   -1.7438877 
 1129000    5.9157442   -1.7728428  0.028292788     -1.74455 
 1130000    5.4456959   -1.7720717  0.026044723    -1.746027 
 1131000    4.8470368   -1.7720416  0.023181561     -1.74886 
 1132000    5.7965413   -1.7744166  0.027722686   -1.7466939 
 1133000      4.85313   -1.7696657  0.023210703    -1.746455 
 1134000    4.5719707   -1.7660705  0.021866023   -1.7442044 
 1135000    7.6930881    -1.764974  0.036793158   -1.7281809 
 1136000     8.040872   -1.7626156  0.038456479   -1.7241591 
 1137000    6.3126316   -1.7668526  0.030190952   -1.7366617 
 1138000     5.583584   -1.7663315  0.026704191   -1.7396274 
 1139000    5.6683806   -1.7636611  0.027109741   -1.7365514 
 1140000    6.3026935      -1.7728  0.030143422   -1.7426565 
 1141000    7.3921528   -1.7672394  0.035353897   -1.7318855 
 1142000    7.5652849    -1.759087  0.036181923   -1.7229051 
 1143000    4.9542217   -1.7717672  0.023694186    -1.748073 
 1144000    6.0288504   -1.7512851  0.028833733   -1.7224514 
 1145000    8.0008125   -1.7576689  0.038264889    -1.719404 
 1146000    6.6709142   -1.7637533  0.031904483   -1.7318488 
 1147000    6.9560126   -1.7569906  0.033268002   -1.7237226 
 1148000    7.0957531   -1.7683341  0.033936329   -1.7343977 
 1149000    5.8932413   -1.7613265  0.028185165   -1.7331413 
 1150000      6.12702   -1.7555444  0.029303241   -1.7262412 
 1151000    6.4045848   -1.7624565   0.03063073   -1.7318258 
 1152000    5.9505502   -1.7644503  0.028459252    -1.735991 
 1153000    5.1226051   -1.7661144  0.024499501   -1.7416149 
 1154000    8.4977645   -1.7622802  0.040641624   -1.7216386 
 1155000     6.742592   -1.7565412  0.032247292   -1.7242939 
 1156000    6.1131576   -1.7620992  0.029236943   -1.7328622 
 1157000    6.8728958    -1.762019  0.032870486   -1.7291485 
 1158000    5.3487825   -1.7576406  0.025581223   -1.7320594 
 1159000     7.614886   -1.7657907  0.036419147   -1.7293715 
 1160000    4.7691954   -1.7666553  0.022809275    -1.743846 
 1161000    6.1908861   -1.7764007  0.029608689    -1.746792 
 1162000    4.9804553   -1.7781762  0.023819652   -1.7543565 
 1163000    5.4780986   -1.7688628  0.026199693   -1.7426631 
 1164000     4.120006   -1.7706422  0.019704445   -1.7509377 
 1165000    3.3084418   -1.7791384  0.015823037   -1.7633154 
 1166000    4.3496504   -1.7769755  0.020802748   -1.7561728 
 1167000     3.249644   -1.7783809   0.01554183   -1.7628391 
 1168000    3.5561634   -1.7770012  0.017007797   -1.7599934 
 1169000    4.6612795   -1.7759382  0.022293153   -1.7536451 
 1170000    2.7754187   -1.7784159  0.013273788   -1.7651421 
 1171000    4.3778645   -1.7803906  0.020937686   -1.7594529 
 1172000    3.3581573   -1.7759794  0.016060808   -1.7599186 
 1173000    4.0662404   -1.7793461  0.019447304   -1.7598988 
 1174000    3.8041994   -1.7765539   0.01819406   -1.7583598 
 1175000    4.4088669   -1.7776051  0.021085959   -1.7565191 
 1176000    3.5028506   -1.7773908  0.016752822    -1.760638 
 1177000    3.8724058    -1.783659  0.018520266   -1.7651388 
 1178000    4.0659526   -1.7748019  0.019445928    -1.755356 
 1179000    4.9606625   -1.7693788   0.02372499   -1.7456538 
 1180000    5.7245136    -1.766004  0.027378204   -1.7386258 
 1181000    5.7611719   -1.7669714  0.027553527   -1.7394179 
 1182000    5.5443938   -1.7702627  0.026516758   -1.7437459 
 1183000    5.1555269   -1.7651915  0.024656954   -1.7405346 
 1184000    5.2227767   -1.7738039  0.024978585   -1.7488254 
 1185000    5.7183438   -1.7713904  0.027348696   -1.7440417 
 1186000    4.7423103   -1.7695925  0.022680693   -1.7469118 
 1187000    5.2805477   -1.7725573  0.025254881   -1.7473025 
 1188000    5.4336189   -1.7742629  0.025986964   -1.7482759 
 1189000    5.6463854   -1.7760021  0.027004546   -1.7489976 
 1190000    4.7773081     -1.77361  0.022848075   -1.7507619 
 1191000    4.8145944   -1.7727652  0.023026401   -1.7497388 
 1192000    5.0512244    -1.766912  0.024158114   -1.7427539 
 1193000    5.3535211   -1.7705073  0.025603886   -1.7449034 
 1194000    5.6478487   -1.7678357  0.027011545   -1.7408241 
 1195000    5.3896501   -1.7697341  0.025776677   -1.7439574 
 1196000    5.1134353   -1.7672473  0.024455645   -1.7427916 
 1197000    4.4951804     -1.76952  0.021498764   -1.7480213 
 1198000    5.6744341   -1.7686188  0.027138693   -1.7414801 
 1199000    5.9438181   -1.7695422  0.028427055   -1.7411151 
 1200000    4.1417105   -1.7707871   0.01980825   -1.7509789 
 1201000    6.6159482   -1.7604837  0.031641602   -1.7288421 
 1202000    7.0900132   -1.7582612  0.033908877   -1.7243523 
 1203000    7.5436328   -1.7637098  0.036078369   -1.7276315 
 1204000    5.6710733   -1.7623305  0.027122619   -1.7352079 
 1205000    7.8138646   -1.7626242  0.037370787   -1.7252534 
 1206000    5.4739406   -1.7646189  0.026179807   -1.7384391 
 1207000    5.0653307   -1.7562396  0.024225579    -1.732014 
 1208000    5.8303631    -1.769307  0.027884443   -1.7414225 
 1209000    4.9050599   -1.7731223  0.023459064   -1.7496633 
 1210000    5.5144263   -1.7729696  0.026373435   -1.7465962 
 1211000    4.9822266   -1.7701779  0.023828124   -1.7463498 
 1212000      5.88422   -1.7676518   0.02814202   -1.7395097 
 1213000    4.4486237    -1.771429  0.021276101   -1.7501529 
 1214000    5.6190443   -1.7730667  0.026873784   -1.7461929 
 1215000    3.7270656   -1.7743582  0.017825158    -1.756533 
 1216000    4.6266612   -1.7664735  0.022127587    -1.744346 
 1217000    4.4539604   -1.7752762  0.021301624   -1.7539746 
 1218000    4.7915558   -1.7738499  0.022916217   -1.7509337 
 1219000    4.6114543   -1.7722586  0.022054858   -1.7502037 
 1220000    4.9941752   -1.7668672  0.023885269   -1.7429819 
 1221000    4.3816186   -1.7737721   0.02095564   -1.7528165 
 1222000    4.2270492    -1.771675  0.020216393   -1.7514586 
 1223000    4.1680585   -1.7752296  0.019934262   -1.7552953 
 1224000     4.180817   -1.7694947  0.019995282   -1.7494994 
 1225000    4.1394806   -1.7709708  0.019797585   -1.7511732 
 1226000     6.043267    -1.768692  0.028902682   -1.7397893 
 1227000    4.6187304   -1.7795021  0.022089657   -1.7574124 
 1228000    5.1899548    -1.768576   0.02482161   -1.7437544 
 1229000    4.9746885   -1.7672358  0.023792071   -1.7434438 
 1230000    6.5860411   -1.7593137  0.031498567   -1.7278151 
 1231000    7.6042648   -1.7599441   0.03636835   -1.7235757 
 1232000    8.4723358   -1.7564304  0.040520008   -1.7159104 
 1233000     7.017228   -1.7611177  0.033560773    -1.727557 
 1234000    9.7483344   -1.7398891  0.046622631   -1.6932664 
 1235000    9.1828845   -1.7435532  0.043918296    -1.699635 
 1236000    9.6356632   -1.7447774  0.046083767   -1.6986936 
 1237000    7.9293047   -1.7562198  0.037922894   -1.7182969 
 1238000     7.397201    -1.744154  0.035378041   -1.7087759 
 1239000    9.8924163   -1.7336045  0.047311721   -1.6862928 
 1240000    7.4816257   -1.7553883  0.035781813   -1.7196065 
 1241000    9.6150629   -1.7491992  0.045985244    -1.703214 
 1242000    8.0262567   -1.7470595  0.038386579   -1.7086729 
 1243000    8.8333394   -1.7346969  0.042246553   -1.6924504 
 1244000     9.480324    -1.753565  0.045340838   -1.7082242 
 1245000    8.8603567   -1.7504444  0.042375767   -1.7080686 
 1246000       8.5817   -1.7486339  0.041043056   -1.7075909 
 1247000     11.48971   -1.7555231  0.054950977   -1.7005722 
 1248000    7.9874398   -1.7532068  0.038200932   -1.7150058 
 1249000    8.3547652   -1.7403325  0.039957712   -1.7003748 
 1250000    15.106691   -1.7280307  0.072249643   -1.6557811 
 1251000    11.633413   -1.7254085  0.055638256   -1.6697702 
 1252000    11.163159   -1.7414111  0.053389206   -1.6880219 
 1253000    12.426816   -1.7228959  0.059432804   -1.6634631 
 1254000    10.441522    -1.717539  0.049937887   -1.6676011 
 1255000    9.7621053   -1.7328445  0.046688492    -1.686156 
 1256000    12.916744   -1.7340708   0.06177595   -1.6722949 
 1257000    12.156524   -1.7079301  0.058140098     -1.64979 
 1258000    16.377219   -1.7036162  0.078326103     -1.62529 
 1259000      16.1377   -1.7176844  0.077180573   -1.6405038 
 1260000     14.89352   -1.6849593  0.071230128   -1.6137292 
 1261000    17.035644   -1.7168502  0.081475104   -1.6353751 
 1262000      16.5114   -1.7091487  0.078967839   -1.6301809 
 1263000    17.220211   -1.7039541   0.08235782   -1.6215962 
 1264000    18.504716   -1.7216513  0.088501122   -1.6331502 
[...]
 4697000    2.7609694   -1.7796603  0.013204682   -1.7664556 
 4698000    3.0433908   -1.7809448  0.014555398   -1.7663894 
 4699000    4.3316042   -1.7815301   0.02071644   -1.7608136 
 4700000    3.7835115   -1.7786252  0.018095118   -1.7605301 
 4701000    3.8756435   -1.7809531  0.018535751   -1.7624173 
 4702000     3.130753   -1.7762709  0.014973219   -1.7612977 
 4703000      5.08361   -1.7661379  0.024313002   -1.7418249 
 4704000    4.2758635   -1.7705302  0.020449853   -1.7500803 
 4705000    6.2284679   -1.7708791  0.029788429   -1.7410907 
 4706000     5.693164    -1.776914   0.02722827   -1.7496857 
 4707000    3.0553132   -1.7795305  0.014612419    -1.764918 
 4708000    3.8177069   -1.7788528  0.018258662   -1.7605941 
 4709000    3.5319757   -1.7766007  0.016892117   -1.7597086 
 4710000    4.3090557   -1.7789522  0.020608599   -1.7583436 
 4711000    3.5218467   -1.7753211  0.016843674   -1.7584774 
 4712000    3.9429523   -1.7646887  0.018857664    -1.745831 
 4713000    5.2001069   -1.7712664  0.024870163   -1.7463962 
 4714000    4.6776956   -1.7752946  0.022371666    -1.752923 
 4715000    4.0429631   -1.7753407  0.019335978   -1.7560047 
 4716000    5.6476873   -1.7727911  0.027010773   -1.7457803 
 4717000    4.8224262   -1.7673018  0.023063858   -1.7442379 
 4718000    4.9848201   -1.7678482  0.023840527   -1.7440077 
 4719000    4.4983923   -1.7729751  0.021514125    -1.751461 
 4720000    5.5743785   -1.7696756  0.026660164   -1.7430154 
 4721000     4.397815   -1.7713983  0.021033102   -1.7503652 
 4722000    3.7212795   -1.7757689  0.017797486   -1.7579714 
 4723000    5.2557217   -1.7670892  0.025136148    -1.741953 
 4724000    5.7935401   -1.7713625  0.027708332   -1.7436542 
 4725000    3.7349548   -1.7705673   0.01786289   -1.7527044 
 4726000    5.1141481   -1.7700238  0.024459055   -1.7455647 
 4727000    5.0573832   -1.7651994  0.024187569   -1.7410118 
 4728000    5.4333352   -1.7688638  0.025985607   -1.7428782 
 4729000     4.817975    -1.764358   0.02304257   -1.7413155 
 4730000    4.8186178   -1.7682977  0.023045644   -1.7452521 
 4731000    4.9353669   -1.7687219  0.023604011   -1.7451179 
 4732000    3.5099244   -1.7824062  0.016786654   -1.7656196 
 4733000    4.0547655   -1.7815856  0.019392424   -1.7621932 
 4734000    3.9069444   -1.7779592  0.018685451   -1.7592738 
 4735000    3.9842655   -1.7767196  0.019055249   -1.7576643 
 4736000    3.1729786   -1.7798645  0.015175168   -1.7646894 
 4737000    3.1121962   -1.7804504  0.014884468   -1.7655659 
 4738000    3.7769009   -1.7776531  0.018063502   -1.7595896 
 4739000    2.6799315   -1.7750408  0.012817108   -1.7622237 
 4740000    3.3443777   -1.7777998  0.015994906   -1.7618049 
 4741000    3.7883608   -1.7791223   0.01811831    -1.761004 
 4742000     3.542094   -1.7766969  0.016940509   -1.7597564 
 4743000     3.782044   -1.7781981  0.018088099     -1.76011 
 4744000    3.5023945   -1.7762863  0.016750641   -1.7595357 
 4745000    3.7308047   -1.7791148  0.017843041   -1.7612717 
 4746000    3.6940629   -1.7834399  0.017667319   -1.7657726 
 4747000    3.6865819   -1.7806193   0.01763154   -1.7629878 
 4748000     3.485438   -1.7810161  0.016669544   -1.7643466 
 4749000     4.042145   -1.7786644  0.019332065   -1.7593324 
 4750000    3.1757059   -1.7786698  0.015188212   -1.7634816 
 4751000    3.6524507    -1.781926  0.017468303   -1.7644577 
 4752000    3.0942466   -1.7814755  0.014798622   -1.7666769 
 4753000    3.7288134   -1.7794263  0.017833518   -1.7615928 
 4754000    3.9794346   -1.7768212  0.019032145   -1.7577891 
 4755000     2.990056   -1.7788996  0.014300317   -1.7645993 
 4756000    3.1556022   -1.7766959  0.015092063   -1.7616039 
 4757000    4.4637795   -1.7824918  0.021348585   -1.7611432 
 4758000    4.0379039   -1.7814349  0.019311781   -1.7621231 
 4759000    4.9974595   -1.7772897  0.023900976   -1.7533887 
 4760000    4.1122479   -1.7758139  0.019667341   -1.7561465 
 4761000    3.7374848   -1.7828428  0.017874989   -1.7649679 
 4762000    4.3115865   -1.7785873  0.020620703   -1.7579666 
 4763000    4.0089852    -1.780105  0.019173474   -1.7609315 
 4764000    4.1594014   -1.7777044  0.019892859   -1.7578116 
 4765000    3.1592359   -1.7844641  0.015109442   -1.7693546 
 4766000    3.1118606   -1.7850363  0.014882863   -1.7701534 
 4767000    2.7195241   -1.7836175  0.013006465    -1.770611 
 4768000    2.9251973   -1.7850728  0.013990123   -1.7710827 
 4769000    2.5600843   -1.7852781  0.012243924   -1.7730342 
 4770000    2.6352854   -1.7850461  0.012603583   -1.7724426 
 4771000    2.5473461   -1.7842214  0.012183002   -1.7720384 
 4772000    2.7301531   -1.7872644  0.013057299   -1.7742071 
 4773000    2.8777063   -1.7847774  0.013762991   -1.7710145 
 4774000    3.2331011   -1.7856176  0.015462711   -1.7701549 
 4775000    2.7708092   -1.7867788  0.013251742    -1.773527 
 4776000    2.6932633   -1.7856414   0.01288087   -1.7727605 
 4777000     2.850206   -1.7839587  0.013631467   -1.7703272 
 4778000    2.7496766   -1.7839492  0.013150673   -1.7707985 
 4779000    2.0049274   -1.7835016 0.0095888165   -1.7739128 
 4780000    2.6776287   -1.7813112  0.012806095   -1.7685051 
 4781000    2.6939542   -1.7868489  0.012884174   -1.7739647 
 4782000    2.7042624   -1.7820755  0.012933474    -1.769142 
 4783000    2.4531167   -1.7862501  0.011732338   -1.7745178 
 4784000    2.5946812   -1.7847134  0.012409388    -1.772304 
 4785000    2.7752088   -1.7822772  0.013272784   -1.7690044 
 4786000    2.9537488   -1.7846442  0.014126674   -1.7705175 
 4787000    2.5449462   -1.7891052  0.012171524   -1.7769337 
 4788000    2.1371443   -1.7859961  0.010221161   -1.7757749 
 4789000    2.2785959   -1.7893641  0.010897671   -1.7784664 
 4790000    1.6329204    -1.788084 0.0078096467   -1.7802744 
 4791000    1.9351416    -1.782706 0.0092550574   -1.7734509 
 4792000    2.3276123   -1.7827942  0.011132098   -1.7716621 
 4793000    2.6369131   -1.7891588  0.012611368   -1.7765475 
 4794000     1.695084   -1.7886824 0.0081069516   -1.7805755 
 4795000    1.6964483   -1.7904288 0.0081134767   -1.7823153 
 4796000    1.6800375   -1.7866559 0.0080349899   -1.7786209 
 4797000    2.1447689   -1.7861195  0.010257626   -1.7758618 
 4798000    1.8063517   -1.7915762 0.0086391035   -1.7829371 
 4799000    1.8044261   -1.7897906 0.0086298941   -1.7811607 
 4800000    2.2011527   -1.7893793  0.010527289    -1.778852 
 4801000    1.8784383   -1.7891808 0.0089838667   -1.7801969 
 4802000    2.0286546   -1.7857422 0.0097022948   -1.7760399 
 4803000    1.9879431   -1.7866711  0.009507587   -1.7771635 
 4804000    2.0983378   -1.7876465  0.010035563   -1.7776109 
 4805000    2.2970676   -1.7864235  0.010986014   -1.7754375 
 4806000    2.1142022   -1.7893718  0.010111437   -1.7792604 
 4807000    2.1206807   -1.7919016  0.010142421   -1.7817592 
 4808000    2.4848335   -1.7902527  0.011884028   -1.7783687 
 4809000    1.8261364   -1.7891311 0.0087337265   -1.7803974 
 4810000    2.2001622   -1.7885905  0.010522552   -1.7780679 
 4811000     1.677616   -1.7883475 0.0080234087   -1.7803241 
 4812000    2.1410069   -1.7899864  0.010239634   -1.7797468 
 4813000    1.7143902   -1.7916522 0.0081992863   -1.7834529 
 4814000    2.5825048   -1.7911655  0.012351153   -1.7788143 
 4815000    2.3280861   -1.7857645  0.011134364   -1.7746301 
 4816000    2.2445996   -1.7914145  0.010735079   -1.7806795 
 4817000    1.7898481   -1.7882084 0.0085601729   -1.7796482 
 4818000    1.6726197   -1.7903652 0.0079995134   -1.7823657 
 4819000    1.7135395   -1.7898059 0.0081952174   -1.7816106 
 4820000    2.0690925   -1.7871385 0.0098956945   -1.7772428 
 4821000    2.4663477    -1.786161  0.011795617   -1.7743654 
 4822000    1.6327356   -1.7903307 0.0078087627   -1.7825219 
 4823000    2.1085713   -1.7886408  0.010084507   -1.7785563 
 4824000    2.0995702   -1.7867417  0.010041458   -1.7767002 
 4825000    2.3866225   -1.7836449  0.011414321   -1.7722305 
 4826000     2.888957   -1.7853356  0.013816799   -1.7715188 
 4827000    2.3097084   -1.7832517   0.01104647   -1.7722052 
 4828000    2.5456145   -1.7864917   0.01217472    -1.774317 
 4829000    2.1867561   -1.7843791  0.010458435   -1.7739207 
 4830000    2.5543752   -1.7854787  0.012216619    -1.773262 
 4831000    1.8435753   -1.7813618 0.0088171298   -1.7725447 
 4832000    2.7425032   -1.7837113  0.013116365   -1.7705949 
 4833000    2.6413275   -1.7863525   0.01263248     -1.77372 
 4834000    1.8430136   -1.7863675 0.0088144438   -1.7775531 
 4835000    2.1802058   -1.7880839  0.010427108   -1.7776568 
 4836000    1.8577864   -1.7881198 0.0088850963   -1.7792347 
 4837000    1.4240316   -1.7875944 0.0068106095   -1.7807838 
 4838000    2.1701555   -1.7870157  0.010379041   -1.7766366 
 4839000    1.8131696   -1.7877018 0.0086717108   -1.7790301 
 4840000    1.8121709   -1.7874966 0.0086669344   -1.7788296 
 4841000    1.9575797   -1.7898411 0.0093623701   -1.7804787 
 4842000    2.0679673   -1.7876533 0.0098903127    -1.777763 
 4843000    2.2689734   -1.7847453   0.01085165   -1.7738936 
 4844000    2.0905073    -1.787126 0.0099981132   -1.7771279 
 4845000     1.919593   -1.7905195 0.0091806942   -1.7813388 
 4846000    2.0596383   -1.7906248 0.0098504783   -1.7807743 
 4847000    1.7303621   -1.7914506 0.0082756735   -1.7831749 
 4848000    1.9218845   -1.7870356 0.0091916538    -1.777844 
 4849000    2.0103652   -1.7912659 0.0096148236    -1.781651 
 4850000    1.4436235   -1.7893438 0.0069043104   -1.7824395 
 4851000    2.9250519   -1.7893621  0.013989427   -1.7753727 
 4852000    1.7883831   -1.7885239 0.0085531665   -1.7799707 
 4853000     2.581094   -1.7877156  0.012344406   -1.7753712 
 4854000    2.3993411   -1.7867632   0.01147515    -1.775288 
 4855000    1.3504682   -1.7889219 0.0064587836   -1.7824631 
 4856000    2.1234218   -1.7882617  0.010155531   -1.7781062 
 4857000    1.7281594   -1.7887376 0.0082651391   -1.7804725 
 4858000    2.4161577   -1.7864137  0.011555577   -1.7748581 
 4859000    2.3332504   -1.7890998  0.011159063   -1.7779407 
 4860000    1.6721073   -1.7903625 0.0079970629   -1.7823654 
 4861000    1.6945669     -1.78866 0.0081044787   -1.7805555 
 4862000    2.0468278   -1.7881093 0.0097892108   -1.7783201 
 4863000    1.9771208   -1.7890083 0.0094558282   -1.7795525 
 4864000    2.2678898   -1.7867796  0.010846467   -1.7759332 
 4865000    1.9356105   -1.7898869 0.0092573001   -1.7806296 
 4866000    2.3187789    -1.787361  0.011089851   -1.7762712 
 4867000    1.8986139   -1.7885472 0.0090803588   -1.7794668 
 4868000    1.8631987   -1.7876683 0.0089109814   -1.7787573 
 4869000    1.9660068    -1.787654 0.0094026741   -1.7782513 
 4870000    1.6713405   -1.7878374 0.0079933955    -1.779844 
 4871000    2.2322509   -1.7917194   0.01067602   -1.7810434 
 4872000    1.4720856   -1.7902641 0.0070404338   -1.7832237 
 4873000    2.1153321   -1.7885537  0.010116841   -1.7784369 
 4874000    2.3395306   -1.7879936  0.011189099   -1.7768045 
 4875000    1.6896256    -1.790202 0.0080808461   -1.7821212 
 4876000    1.8347469   -1.7906044  0.008774907   -1.7818295 
 4877000    2.3484042    -1.787919  0.011231537   -1.7766874 
 4878000    1.8764675   -1.7879111 0.0089744409   -1.7789367 
 4879000    2.3399781   -1.7882478  0.011191238   -1.7770566 
 4880000    2.0069548   -1.7894206 0.0095985129   -1.7798221 
 4881000    1.9129445   -1.7892482  0.009148897   -1.7800993 
 4882000    1.8001603   -1.7874927 0.0086094923   -1.7788832 
 4883000    1.6261929   -1.7883178 0.0077774715   -1.7805403 
 4884000      2.24175   -1.7900813  0.010721451   -1.7793598 
 4885000     2.278287   -1.7867326  0.010896193   -1.7758364 
 4886000    2.1797413   -1.7895995  0.010424886   -1.7791746 
 4887000     1.982773    -1.790897 0.0094828607   -1.7814141 
 4888000    1.9865024   -1.7902091 0.0095006966   -1.7807084 
 4889000    2.1787065    -1.786609  0.010419937   -1.7761891 
 4890000    2.0731627   -1.7880541 0.0099151607    -1.778139 
 4891000    1.4720397   -1.7871424 0.0070402142   -1.7801022 
 4892000    2.1442212   -1.7912901  0.010255007   -1.7810351 
 4893000     1.855575   -1.7914521   0.00887452   -1.7825776 
 4894000    2.3485198   -1.7869231   0.01123209   -1.7756911 
 4895000     2.211026   -1.7897253  0.010574509   -1.7791508 
 4896000     2.041046   -1.7902687 0.0097615584   -1.7805072 
 4897000    1.4869926   -1.7920063 0.0071117284   -1.7848946 
 4898000    1.8888344   -1.7887895 0.0090335873   -1.7797559 
 4899000    2.0878989   -1.7886446  0.009985638    -1.778659 
 4900000    2.0911072   -1.7839762  0.010000982   -1.7739752 
 4901000    1.6910093   -1.7830368 0.0080874639   -1.7749493 
 4902000    3.0296581   -1.7867781   0.01448972   -1.7722883 
 4903000     2.447121    -1.786165  0.011703663   -1.7744613 
 4904000    1.9576221   -1.7839716  0.009362573    -1.774609 
 4905000    2.1878891   -1.7866508  0.010463854   -1.7761869 
 4906000    2.1061139   -1.7891902  0.010072754   -1.7791175 
 4907000    1.5887928   -1.7877824 0.0075986007   -1.7801838 
 4908000    2.2058754   -1.7860664  0.010549876   -1.7755165 
 4909000    1.9755238   -1.7858483 0.0094481904   -1.7764001 
 4910000    2.7342014   -1.7805496  0.013076661   -1.7674729 
 4911000    3.4958605   -1.7774487  0.016719391   -1.7607293 
 4912000    3.6096772   -1.7801276  0.017263734   -1.7628639 
 4913000    3.7211973   -1.7776976  0.017797092   -1.7599005 
 4914000    3.7959852    -1.780191  0.018154775   -1.7620363 
 4915000    3.8503035   -1.7749321  0.018414559   -1.7565175 
 4916000    3.5493568   -1.7801715  0.016975244   -1.7631963 
 4917000    2.4190756   -1.7799115  0.011569532    -1.768342 
 4918000    4.4747553   -1.7781001  0.021401078    -1.756699 
 4919000    4.0990663   -1.7778498  0.019604298   -1.7582455 
 4920000    3.7444038   -1.7813625   0.01790808   -1.7634544 
 4921000    3.2456915   -1.7777124  0.015522927   -1.7621894 
 4922000    4.7447346   -1.7772393  0.022692288   -1.7545471 
 4923000    4.9810977    -1.766944  0.023822724   -1.7431213 
 4924000    5.7126156   -1.7599966    0.0273213   -1.7326753 
 4925000    6.4950209   -1.7605601  0.031063252   -1.7294969 
 4926000     5.196526   -1.7653032  0.024853037   -1.7404501 
 4927000    6.8695523    -1.764498  0.032854495   -1.7316435 
 4928000    6.2131935   -1.7557379  0.029715377   -1.7260226 
 4929000    6.6118751   -1.7721075  0.031622121   -1.7404854 
 4930000    5.6682486   -1.7684974  0.027109109   -1.7413883 
 4931000    6.6060297   -1.7492264  0.031594165   -1.7176323 
 4932000    5.7364019   -1.7591687  0.027435061   -1.7317337 
 4933000    8.8981824   -1.7629929  0.042556673   -1.7204362 
 4934000    7.0588705   -1.7624895  0.033759933   -1.7287296 
 4935000    6.6879304   -1.7596116  0.031985866   -1.7276257 
 4936000    7.6007599   -1.7587694  0.036351587   -1.7224179 
 4937000     6.758578   -1.7657136  0.032323746   -1.7333899 
 4938000    6.0907883   -1.7623097  0.029129959   -1.7331798 
 4939000    8.1707641   -1.7526795  0.039077704   -1.7136018 
 4940000    7.0739505   -1.7528766  0.033832055   -1.7190445 
 4941000    6.9082602   -1.7587521   0.03303962   -1.7257125 
 4942000    7.1821195   -1.7657877  0.034349387   -1.7314383 
 4943000     4.796611   -1.7732834  0.022940393    -1.750343 
 4944000    5.4671793   -1.7676014   0.02614747   -1.7414539 
 4945000    5.3736355   -1.7715205  0.025700085   -1.7458204 
 4946000     4.148744   -1.7725437  0.019841888   -1.7527018 
 4947000     5.236154   -1.7685786  0.025042563    -1.743536 
 4948000    5.2357918   -1.7665578  0.025040831    -1.741517 
 4949000    5.0908316   -1.7717978   0.02434754   -1.7474502 
 4950000    6.8076297   -1.7662524  0.032558343    -1.733694 
 4951000    5.9180578   -1.7791786  0.028303853   -1.7508748 
 4952000    4.5604641   -1.7705426  0.021810991   -1.7487316 
 4953000    4.7010613   -1.7669494  0.022483415    -1.744466 
 4954000    4.5367369   -1.7749017  0.021697513   -1.7532042 
 4955000    5.1381038   -1.7746617  0.024573625   -1.7500881 
 4956000    3.9725983    -1.771068   0.01899945   -1.7520686 
 4957000    5.8775146   -1.7698073  0.028109951   -1.7416973 
 4958000    5.6816791   -1.7696954  0.027173342   -1.7425221 
 4959000    5.9851677   -1.7699581  0.028624815   -1.7413333 
 4960000    5.2161193   -1.7775663  0.024946745   -1.7526196 
 4961000    3.4338731   -1.7751463  0.016422929   -1.7587234 
 4962000    4.3262785   -1.7699474   0.02069097   -1.7492564 
 4963000    4.1300403   -1.7695762  0.019752435   -1.7498237 
 4964000     6.416762   -1.7749184  0.030688968   -1.7442294 
 4965000    4.9354011   -1.7685269  0.023604175   -1.7449227 
 4966000     5.883588   -1.7715758  0.028138997   -1.7434368 
 4967000      5.28828   -1.7734759  0.025291862    -1.748184 
 4968000    4.4650903    -1.775388  0.021354854   -1.7540332 
 4969000    5.8697566   -1.7747011  0.028072847   -1.7466283 
 4970000    5.6181978   -1.7635958  0.026869735    -1.736726 
 4971000    5.1162778    -1.771119   0.02446924   -1.7466498 
 4972000     5.692625   -1.7731129  0.027225692   -1.7458872 
 4973000    5.3021254    -1.774903  0.025358079   -1.7495449 
 4974000    5.6151403    -1.771013  0.026855113   -1.7441578 
 4975000    4.6559463   -1.7643611  0.022267647   -1.7420935 
 4976000    7.8853565   -1.7683123  0.037712706   -1.7305996 
 4977000    3.7866587   -1.7717743   0.01811017   -1.7536641 
 4978000    5.3096439   -1.7720642  0.025394037   -1.7466701 
 4979000    4.7960636   -1.7718755  0.022937775   -1.7489377 
 4980000     4.805893   -1.7643981  0.022984786   -1.7414133 
 4981000    5.8271476   -1.7731878  0.027869064   -1.7453188 
 4982000    4.9978875    -1.772486  0.023903024   -1.7485829 
 4983000    5.5807787   -1.7770846  0.026690774   -1.7503938 
 4984000     4.333223   -1.7673587  0.020724182   -1.7466345 
 4985000    6.5169523   -1.7733689  0.031168141   -1.7422008 
 4986000    4.5634852   -1.7716982   0.02182544   -1.7498728 
 4987000    4.7827459   -1.7698144  0.022874082   -1.7469404 
 4988000    4.1059646   -1.7679333   0.01963729    -1.748296 
 4989000    5.6648613   -1.7663837   0.02709291   -1.7392908 
 4990000    5.5084817   -1.7682975  0.026345004   -1.7419525 
 4991000    4.9505174    -1.777342   0.02367647   -1.7536655 
 4992000    4.0767992    -1.775867  0.019497803   -1.7563692 
 4993000    3.4949477   -1.7801156  0.016715025   -1.7634006 
 4994000    3.4735293   -1.7820603  0.016612589   -1.7654477 
 4995000    3.3366331   -1.7796995  0.015957866   -1.7637416 
 4996000    3.7080223   -1.7793796  0.017734082   -1.7616455 
 4997000    2.8932949    -1.781016  0.013837546   -1.7671784 
 4998000    2.8339685   -1.7786949   0.01355381   -1.7651411 
 4999000    3.2805334   -1.7787956  0.015689562   -1.7631061 
 5000000    3.8166706   -1.7796308  0.018253705   -1.7613771 
Loop time of 1276.16 on 1 procs for 5000000 steps with 38 atoms

Performance: 338.516 ns/day, 0.071 hours/ns, 3918.010 timesteps/s
97.6% CPU use with 1 MPI tasks x no OpenMP threads

MPI task timing breakdown:
Section |  min time  |  avg time  |  max time  |%varavg| %total
---------------------------------------------------------------
Pair    | 1208.3     | 1208.3     | 1208.3     |   0.0 | 94.68
Neigh   | 7.844e-05  | 7.844e-05  | 7.844e-05  |   0.0 |  0.00
Comm    | 1.1163     | 1.1163     | 1.1163     |   0.0 |  0.09
Output  | 0.21182    | 0.21182    | 0.21182    |   0.0 |  0.02
Modify  | 17.125     | 17.125     | 17.125     |   0.0 |  1.34
Other   |            | 49.41      |            |       |  3.87

Nlocal:        38.0000 ave          38 max          38 min
Histogram: 1 0 0 0 0 0 0 0 0 0
Nghost:        0.00000 ave           0 max           0 min
Histogram: 1 0 0 0 0 0 0 0 0 0
Neighs:        0.00000 ave           0 max           0 min
Histogram: 1 0 0 0 0 0 0 0 0 0

Total # of neighbors = 0
Ave neighs/atom = 0.0000000
Neighbor list builds = 279
Dangerous builds = 0
neighbor            0.3        bin


Total wall time: 0:21:16
