LAMMPS (29 Oct 2020)
Processor partition = 2
package gpu 1
# Initialization
units            metal
dimension        3
boundary         p p p
atom_style       atomic

#
#  region for the wall
#

region rs sphere 0 0 0 12.66

read_data        input.dat
Reading data file ...
  orthogonal box = (-50.000000 -50.000000 -50.000000) to (50.000000 50.000000 50.000000)
  1 by 1 by 1 MPI processor grid
  reading atoms ...
  38 atoms
  read_data CPU = 0.013 seconds

mass 1 39.948

pair_style lj/cut 8.5
pair_coeff 1 1 0.01042 3.405  8.5
variable i equal part

variable t world  2.00    2.60    3.64    5    6.63    9.12   12.07   16   21.97   26.83   32.76   40.00
velocity        all        create        $t        293288
velocity        all        create        3.64        293288
velocity all zero linear
velocity all zero angular
fix        1        all        nvt        temp        $t        $t        0.1
fix        1        all        nvt        temp        3.64        $t        0.1
fix        1        all        nvt        temp        3.64        3.64        0.1
fix  2 all wall/region rs harmonic 2.0 0.0 0.4


thermo         1000
thermo_style        custom        step  temp     pe ke etotal
thermo_modify       line        one

restart 5000000 restart.*
dump         2 all xyz 10000 structure_$i.xyz
dump         2 all xyz 10000 structure_2.xyz
dump_modify  2 element "Ar" sort id

temper 5000000 1000 $t 1 3678 3490
temper 5000000 1000 3.64 1 3678 3490
Per MPI rank memory allocation (min/avg/max) = 3.436 | 3.436 | 3.436 Mbytes
Step Temp PotEng KinEng TotEng 
       0    3.6115252   -1.7950808  0.017272572   -1.7778082 
    1000    3.6420125   -1.7805834  0.017418381    -1.763165 
    2000    3.7253165   -1.7787218  0.017816793    -1.760905 
    3000    4.1135818    -1.773571  0.019673721   -1.7538973 
    4000    4.4294641   -1.7848762  0.021184468   -1.7636917 
    5000    3.8308821   -1.7769262  0.018321674   -1.7586045 
    6000    3.4241693   -1.7829325  0.016376519    -1.766556 
    7000    4.0340923   -1.7758993  0.019293552   -1.7566058 
    8000    3.2293788   -1.7749663  0.015444909   -1.7595214 
    9000    3.1825174   -1.7751031  0.015220788   -1.7598823 
   10000     3.451117   -1.7872705    0.0165054   -1.7707651 
   11000    4.7195062   -1.7798635   0.02257163   -1.7572919 
   12000    3.5149869   -1.7809386  0.016810866   -1.7641277 
   13000    2.6742134   -1.7729072  0.012789761   -1.7601174 
   14000    5.1830692     -1.77021  0.024788678   -1.7454213 
   15000    4.5396267   -1.7756099  0.021711334   -1.7538986 
   16000    5.4549407   -1.7815796  0.026088938   -1.7554906 
   17000    6.3640588    -1.771316  0.030436909    -1.740879 
   18000     4.820207   -1.7681324  0.023053244   -1.7450792 
   19000    4.7320291    -1.768502  0.022631522   -1.7458705 
   20000    4.5292756   -1.7760859  0.021661828   -1.7544241 
   21000    4.5692974   -1.7763692  0.021853238    -1.754516 
   22000    5.3036562   -1.7680632    0.0253654   -1.7426978 
   23000    3.8389302   -1.7689808  0.018360165   -1.7506206 
   24000    5.8381933   -1.7739994  0.027921891   -1.7460775 
   25000    4.7940027   -1.7699409  0.022927919    -1.747013 
   26000    5.4202276   -1.7685551  0.025922918   -1.7426322 
   27000    5.7235965   -1.7657534  0.027373818   -1.7383796 
   28000    5.9154753   -1.7742545  0.028291502    -1.745963 
   29000    4.0034254   -1.7711073  0.019146884   -1.7519604 
   30000    5.5729477   -1.7723805  0.026653321   -1.7457271 
   31000    4.8737336   -1.7645619  0.023309242   -1.7412527 
   32000    4.3608162   -1.7723079   0.02085615   -1.7514517 
   33000    5.8190654   -1.7725477   0.02783041   -1.7447173 
   34000    5.2203994   -1.7695263  0.024967215   -1.7445591 
   35000    4.0250156   -1.7711045  0.019250141   -1.7518543 
   36000    4.3729118   -1.7669876  0.020913999   -1.7460736 
   37000    4.9975606   -1.7678279   0.02390146   -1.7439264 
   38000    4.6943153   -1.7715578  0.022451151   -1.7491067 
   39000    4.9806046   -1.7757351  0.023820366   -1.7519148 
   40000    4.6723583   -1.7719541   0.02234614    -1.749608 
   41000    3.8771196   -1.7709045  0.018542811   -1.7523617 
   42000    4.9212872   -1.7718899  0.023536673   -1.7483532 
   43000    4.4237095   -1.7741867  0.021156945   -1.7530297 
   44000    4.9073528   -1.7754356   0.02347003   -1.7519655 
   45000    4.5779029   -1.7773864  0.021894394    -1.755492 
   46000    4.7174109   -1.7807413  0.022561609   -1.7581797 
   47000    3.1747744   -1.7827047  0.015183757   -1.7675209 
   48000    3.0233481   -1.7796106  0.014459541   -1.7651511 
   49000    3.1995362   -1.7805711  0.015302183   -1.7652689 
   50000    4.3582762   -1.7769441  0.020844003      -1.7561 
   51000    4.5519134   -1.7757466  0.021770097   -1.7539765 
   52000    2.8938689   -1.7817775  0.013840291   -1.7679372 
   53000    3.6198906   -1.7767748  0.017312581   -1.7594623 
   54000    3.7229334   -1.7805656  0.017805396   -1.7627602 
   55000    4.1557398   -1.7789009  0.019875347   -1.7590256 
   56000    3.8378257    -1.780577  0.018354883   -1.7622221 
   57000    3.3745502   -1.7785583   0.01613921   -1.7624191 
   58000    3.6317335   -1.7820477  0.017369221   -1.7646784 
   59000    4.3354437   -1.7768373  0.020734803   -1.7561025 
   60000    2.7423098   -1.7826241   0.01311544   -1.7695086 
   61000    3.6074921   -1.7797703  0.017253283   -1.7625171 
   62000    3.1588981   -1.7784724  0.015107826   -1.7633646 
   63000    4.0174731   -1.7817887  0.019214069   -1.7625747 
   64000    3.3573882   -1.7811608   0.01605713   -1.7651037 
   65000    2.6462565   -1.7780733  0.012656053   -1.7654173 
   66000    4.4281176    -1.777644  0.021178027    -1.756466 
   67000    3.2070975   -1.7751621  0.015338346   -1.7598238 
   68000    4.0310781   -1.7786778  0.019279137   -1.7593986 
   69000    3.2584924   -1.7814066  0.015584148   -1.7658225 
   70000    3.9145877    -1.782615  0.018722006    -1.763893 
   71000    3.1921999   -1.7835912  0.015267096   -1.7683241 
   72000     3.419571    -1.780954  0.016354527   -1.7645995 
   73000    2.4835187   -1.7776377   0.01187774   -1.7657599 
   74000    2.9930709   -1.7786981  0.014314737   -1.7643834 
   75000    2.8600583   -1.7795674  0.013678587   -1.7658888 
   76000    3.5905285   -1.7783254  0.017172153   -1.7611533 
   77000    3.7310604   -1.7821466  0.017844264   -1.7643023 
   78000    3.3666501   -1.7866613  0.016101426   -1.7705598 
   79000    2.3275053   -1.7879263  0.011131586   -1.7767947 
   80000    1.9158886   -1.7883159 0.0091629775   -1.7791529 
   81000    2.2143256   -1.7883579   0.01059029   -1.7777676 
   82000     1.982812   -1.7875549 0.0094830471   -1.7780719 
   83000    1.9344823   -1.7853308 0.0092519039   -1.7760789 
   84000    1.7942795   -1.7903606 0.0085813668   -1.7817792 
   85000    1.9993548   -1.7896054 0.0095621649   -1.7800432 
   86000    1.6192158   -1.7877047 0.0077441027   -1.7799606 
   87000     1.869293   -1.7916647 0.0089401279   -1.7827245 
   88000    2.0277254   -1.7841847  0.009697851   -1.7744869 
   89000    2.1350117    -1.787633  0.010210961    -1.777422 
   90000    2.5331778   -1.7897472  0.012115241    -1.777632 
   91000    1.8312865   -1.7893552 0.0087583575   -1.7805968 
   92000    2.2853691   -1.7874843  0.010930064   -1.7765542 
   93000    1.7728182   -1.7888996 0.0084787253   -1.7804208 
   94000    2.6653474   -1.7818527  0.012747358   -1.7691054 
   95000     1.968949   -1.7846858 0.0094167455   -1.7752691 
   96000    2.6567981   -1.7861567   0.01270647   -1.7734503 
   97000    2.9014829   -1.7843045  0.013876706   -1.7704278 
   98000    2.3463441       -1.787  0.011221685   -1.7757783 
   99000    2.7577211   -1.7828377  0.013189147   -1.7696486 
  100000    2.6649091   -1.7802033  0.012745262    -1.767458 
  101000    4.3486024    -1.777413  0.020797736   -1.7566152 
  102000    3.9914888   -1.7794324  0.019089795   -1.7603426 
  103000    3.5878902   -1.7825049  0.017159535   -1.7653453 
  104000    4.1480803   -1.7771834  0.019838714   -1.7573447 
  105000    2.7900139   -1.7795681  0.013343591   -1.7662245 
  106000     3.848855   -1.7754477  0.018407631     -1.75704 
  107000    3.6321066   -1.7807687  0.017371005   -1.7633977 
  108000    3.5182739   -1.7774952  0.016826586   -1.7606686 
  109000    4.2005238    -1.779208  0.020089532   -1.7591184 
  110000    3.6826992   -1.7799103  0.017612971   -1.7622973 
  111000    4.3074713   -1.7789032  0.020601021   -1.7583021 
  112000     3.330778   -1.7791337  0.015929863   -1.7632039 
  113000    3.2150319    -1.782704  0.015376293   -1.7673277 
  114000    3.9048044   -1.7733702  0.018675216   -1.7546949 
  115000    3.3923088   -1.7777716  0.016224142   -1.7615475 
  116000    4.0315667   -1.7759927  0.019281473   -1.7567112 
  117000    3.0548173   -1.7781398  0.014610047   -1.7635297 
  118000    3.3787293   -1.7845314  0.016159196   -1.7683722 
  119000    2.4230004   -1.7870828  0.011588303   -1.7754945 
  120000    2.7513445   -1.7847839   0.01315865   -1.7716253 
  121000    2.5059761   -1.7846422  0.011985145    -1.772657 
  122000    3.1825548   -1.7818151  0.015220967   -1.7665942 
  123000    2.6226523   -1.7853996  0.012543163   -1.7728564 
  124000     2.519315   -1.7861864   0.01204894   -1.7741375 
  125000    2.9893023   -1.7854492  0.014296713   -1.7711525 
  126000    2.6770622    -1.783856  0.012803385   -1.7710526 
  127000    2.7588696   -1.7814599   0.01319464   -1.7682653 
  128000    2.9215165   -1.7849955  0.013972519   -1.7710229 
  129000    2.7788831   -1.7837463  0.013290357   -1.7704559 
  130000    2.5787643   -1.7834739  0.012333264   -1.7711406 
  131000    2.5883582   -1.7849579  0.012379148   -1.7725787 
  132000     2.584832   -1.7818373  0.012362283    -1.769475 
  133000    2.1204886   -1.7835976  0.010141503   -1.7734561 
  134000    3.2967535   -1.7867624  0.015767137   -1.7709953 
  135000    3.0546745   -1.7866893  0.014609364     -1.77208 
  136000    2.7851313   -1.7857179   0.01332024   -1.7723977 
  137000    2.0207572   -1.7861755 0.0096645245    -1.776511 
  138000     2.596793    -1.780515  0.012419488   -1.7680955 
  139000    2.2844676   -1.7843261  0.010925753   -1.7734004 
  140000    2.4881666   -1.7838513  0.011899969   -1.7719514 
  141000    2.3967474   -1.7858174  0.011462745   -1.7743546 
  142000    2.4814104   -1.7812951  0.011867656   -1.7694274 
  143000    2.5098986   -1.7820632  0.012003905   -1.7700593 
  144000    4.2314871   -1.7739432  0.020237618   -1.7537056 
  145000    3.4639527   -1.7833233  0.016566788   -1.7667566 
  146000    2.1608894   -1.7822731  0.010334724   -1.7719384 
  147000    2.4291344   -1.7841756   0.01161764   -1.7725579 
  148000    2.4735191   -1.7850827  0.011829915   -1.7732528 
  149000     2.758868   -1.7857071  0.013194632   -1.7725125 
  150000    1.9607515   -1.7862773 0.0093775399   -1.7768998 
  151000     2.188695   -1.7899999  0.010467708   -1.7795322 
  152000    1.8281269   -1.7875704 0.0087432462   -1.7788271 
  153000    2.1503211   -1.7914878   0.01028418   -1.7812036 
  154000    2.0627973   -1.7878824 0.0098655867   -1.7780168 
  155000    1.6048816   -1.7898977 0.0076755476   -1.7822222 
  156000    2.2549016   -1.7887575   0.01078435   -1.7779732 
  157000    1.9341906   -1.7855953 0.0092505092   -1.7763448 
  158000    2.9113113   -1.7867155  0.013923711   -1.7727918 
  159000    3.4039886   -1.7854545  0.016280002   -1.7691745 
  160000    2.0118587    -1.787102 0.0096219667     -1.77748 
  161000    2.2129897     -1.78769  0.010583901   -1.7771061 
  162000    2.4090939   -1.7897253  0.011521794   -1.7782035 
  163000    1.6379812   -1.7890102 0.0078338504   -1.7811763 
  164000    2.0275403   -1.7888209 0.0096969656   -1.7791239 
  165000    2.1901768   -1.7861264  0.010474795   -1.7756516 
  166000    3.0864321   -1.7840212  0.014761248     -1.76926 
  167000     2.612147   -1.7855215   0.01249292   -1.7730286 
  168000    2.4636517   -1.7876266  0.011782723   -1.7758439 
  169000    2.9595378   -1.7821556   0.01415436   -1.7680013 
  170000    2.4681751   -1.7812599  0.011804357   -1.7694555 
  171000    3.1950385   -1.7842934  0.015280672   -1.7690127 
  172000    2.9844077   -1.7837763  0.014273304    -1.769503 
  173000    2.3849181   -1.7881867   0.01140617   -1.7767805 
  174000    2.1603048   -1.7901315  0.010331929   -1.7797996 
  175000    1.9678674   -1.7886323 0.0094115726   -1.7792208 
  176000    2.3389492   -1.7818197  0.011186318   -1.7706334 
  177000    2.2905999    -1.786418  0.010955081   -1.7754629 
  178000    2.7677797     -1.78683  0.013237253   -1.7735927 
  179000    2.8291354   -1.7832554  0.013530695   -1.7697247 
  180000    2.3158449   -1.7864658  0.011075818     -1.77539 
  181000    2.2990084    -1.786212  0.010995296   -1.7752167 
  182000    2.4413667   -1.7831808  0.011676142   -1.7715047 
  183000     2.800598   -1.7875294  0.013394211   -1.7741352 
  184000    2.4476226   -1.7848769  0.011706062   -1.7731709 
  185000    2.3830696   -1.7859435  0.011397329   -1.7745462 
  186000    3.0892879   -1.7861008  0.014774907   -1.7713259 
  187000    2.5736512    -1.785663   0.01230881   -1.7733542 
  188000    2.8560465   -1.7842169  0.013659401   -1.7705575 
  189000    2.9344915   -1.7876102  0.014034573   -1.7735756 
  190000    2.8332586   -1.7824794  0.013550415    -1.768929 
  191000    2.3151948   -1.7888124   0.01107271   -1.7777397 
  192000    1.6333293   -1.7899517 0.0078116023   -1.7821401 
  193000    1.9756999   -1.7867767 0.0094490327   -1.7773276 
  194000    1.9304873   -1.7894217 0.0092327973   -1.7801889 
  195000    1.7433841   -1.7893529  0.008337953    -1.781015 
  196000    2.4446263   -1.7867635  0.011691732   -1.7750718 
  197000    2.2348734   -1.7877616  0.010688562    -1.777073 
  198000     1.906435   -1.7872293 0.0091177642   -1.7781115 
  199000    1.9046698   -1.7883736 0.0091093219   -1.7792643 
  200000    2.0476516   -1.7886599 0.0097931504   -1.7788667 
  201000    2.1101952   -1.7846143  0.010092273    -1.774522 
  202000     1.820417   -1.7822825 0.0087063727   -1.7735762 
  203000    2.5668366   -1.7845872  0.012276218    -1.772311 
  204000    2.8150645   -1.7848513  0.013463399   -1.7713879 
  205000    2.2010822   -1.7864409  0.010526951    -1.775914 
  206000    2.4970114   -1.7891003   0.01194227   -1.7771581 
  207000    1.7412805   -1.7883348 0.0083278922   -1.7800069 
  208000    1.8648343   -1.7868921 0.0089188038   -1.7779733 
  209000    1.9397929    -1.788157 0.0092773028   -1.7788797 
  210000    1.7847636   -1.7896146 0.0085358559   -1.7810787 
  211000    2.0950984   -1.7866211  0.010020071    -1.776601 
  212000    2.7952314   -1.7843229  0.013368544   -1.7709544 
  213000    2.9607377   -1.7810953  0.014160099   -1.7669352 
  214000    3.1951675   -1.7817521  0.015281289   -1.7664708 
  215000    2.1433181   -1.7869343  0.010250687   -1.7766836 
  216000    2.5256527   -1.7841951  0.012079251   -1.7721159 
  217000    2.3420107   -1.7847548   0.01120096   -1.7735538 
  218000    2.2376288   -1.7852462   0.01070174   -1.7745445 
  219000    2.8472118   -1.7812152  0.013617147   -1.7675981 
  220000    2.7291239   -1.7835612  0.013052377   -1.7705088 
  221000    2.7328431   -1.7842686  0.013070165   -1.7711985 
  222000    2.8763983   -1.7787731  0.013756735   -1.7650164 
  223000    2.5420939   -1.7862411  0.012157883   -1.7740832 
  224000    2.3890136    -1.786752  0.011425757   -1.7753263 
  225000    3.0497898   -1.7791258  0.014586002   -1.7645398 
  226000    2.7017906   -1.7827497  0.012921652   -1.7698281 
  227000    2.6722674   -1.7826141  0.012780454   -1.7698336 
  228000     2.761958   -1.7821056   0.01320941   -1.7688962 
  229000    2.4924916   -1.7853349  0.011920654   -1.7734143 
  230000    3.0454998   -1.7837979  0.014565485   -1.7692324 
  231000    2.3598601   -1.7861892  0.011286327   -1.7749029 
  232000    3.1507171    -1.787525    0.0150687   -1.7724563 
  233000    2.0560448   -1.7886986 0.0098332919   -1.7788653 
  234000    1.9512274   -1.7884005 0.0093319897   -1.7790685 
  235000    2.1653547   -1.7915421   0.01035608    -1.781186 
  236000    2.0876393   -1.7882202 0.0099843967   -1.7782358 
  237000    2.3011499   -1.7897064  0.011005538   -1.7787008 
  238000    2.1599878   -1.7891589  0.010330413   -1.7788285 
  239000    1.7892365   -1.7873117  0.008557248   -1.7787544 
  240000    2.4090555   -1.7879659   0.01152161   -1.7764442 
  241000    1.7681216   -1.7928789 0.0084562631   -1.7844227 
  242000    1.7556536   -1.7857631 0.0083966334   -1.7773665 
  243000    3.2879868   -1.7860701  0.015725209   -1.7703449 
  244000    2.7284044     -1.78536  0.013048936    -1.772311 
  245000    2.3938751   -1.7842031  0.011449008   -1.7727541 
  246000    2.6822127   -1.7866222  0.012828019   -1.7737942 
  247000    3.5466159   -1.7789759  0.016962135   -1.7620137 
  248000    3.9849764   -1.7771304  0.019058649   -1.7580717 
  249000    3.5564594   -1.7802252  0.017009213    -1.763216 
  250000    3.7186052   -1.7814504  0.017784696   -1.7636657 
  251000    3.6853239   -1.7751418  0.017625524   -1.7575163 
  252000    3.6253812   -1.7832479   0.01733884    -1.765909 
  253000    3.5634688   -1.7764506  0.017042736   -1.7594079 
  254000    3.6477072   -1.7739734  0.017445617   -1.7565278 
  255000    3.2953952   -1.7790686  0.015760641   -1.7633079 
  256000    3.6713149   -1.7803183  0.017558524   -1.7627597 
  257000    3.5298256   -1.7791163  0.016881833   -1.7622345 
  258000    3.9419886   -1.7771777  0.018853055   -1.7583247 
  259000    3.6387656   -1.7830176  0.017402853   -1.7656148 
  260000    1.9271915   -1.7861326 0.0092170351   -1.7769155 
  261000    2.6533748   -1.7881514  0.012690098   -1.7754613 
  262000    2.1516364   -1.7864202  0.010290471   -1.7761297 
  263000    2.0756205   -1.7876927 0.0099269152   -1.7777657 
  264000    1.6981428   -1.7893788 0.0081215808   -1.7812573 
  265000    1.9568117   -1.7901806 0.0093586974   -1.7808219 
  266000    1.8556008   -1.7907069 0.0088746436   -1.7818322 
  267000     2.197494   -1.7908969   0.01050979   -1.7803871 
  268000    1.8587599   -1.7866498 0.0088897521   -1.7777601 
  269000    2.0135869   -1.7890854 0.0096302318   -1.7794552 
  270000    2.0076645   -1.7870466 0.0096019072   -1.7774447 
  271000    1.9155142   -1.7854113 0.0091611867   -1.7762501 
  272000    2.6297626   -1.7839896  0.012577169   -1.7714125 
  273000    2.8218026   -1.7807933  0.013495625   -1.7672976 
  274000    2.6257334   -1.7828883  0.012557899   -1.7703304 
  275000    2.5546432   -1.7866898  0.012217901   -1.7744719 
  276000    2.5968375    -1.785999  0.012419701   -1.7735793 
  277000    2.4769358   -1.7864943  0.011846256    -1.774648 
  278000      2.29705   -1.7865097   0.01098593   -1.7755237 
  279000    2.4143839   -1.7856579  0.011547094   -1.7741108 
  280000    3.1035153   -1.7845393  0.014842951   -1.7696963 
  281000    2.0079173   -1.7896755  0.009603116   -1.7800724 
  282000     2.263163   -1.7895989  0.010823861    -1.778775 
  283000    2.1889784   -1.7879164  0.010469064   -1.7774473 
  284000    2.1507722   -1.7883734  0.010286337    -1.778087 
  285000    1.9046823   -1.7887114 0.0091093819   -1.7796021 
  286000    2.0371533   -1.7883707 0.0097429411   -1.7786278 
  287000    2.1196823    -1.789119  0.010137646   -1.7789813 
  288000    1.7934973   -1.7890809 0.0085776257   -1.7805032 
  289000    1.7006265   -1.7878245 0.0081334593    -1.779691 
  290000    2.3423273   -1.7892685  0.011202474    -1.778066 
  291000    1.9394779     -1.78573 0.0092757962   -1.7764542 
  292000    1.8658016   -1.7891691 0.0089234301   -1.7802457 
  293000    1.9066281   -1.7867457  0.009118688    -1.777627 
  294000     2.100702   -1.7866766   0.01004687   -1.7766297 
  295000    2.1239358   -1.7881723  0.010157989   -1.7780143 
  296000     1.663518   -1.7899915 0.0079559836   -1.7820355 
  297000    1.8399832   -1.7902614 0.0087999503   -1.7814614 
  298000    2.3339763   -1.7891405  0.011162534   -1.7779779 
  299000    1.8810856   -1.7884927 0.0089965279   -1.7794962 
  300000    2.1468731   -1.7930324   0.01026769   -1.7827647 
  301000    1.7648807   -1.7902576 0.0084407634   -1.7818169 
  302000    2.0043644    -1.787938 0.0095861239   -1.7783519 
  303000    2.3737237   -1.7829146  0.011352631    -1.771562 
  304000    2.4570058   -1.7836726  0.011750938   -1.7719216 
  305000    3.6263819   -1.7874024  0.017343626   -1.7700587 
  306000    2.4838827   -1.7855056   0.01187948   -1.7736261 
  307000    2.8212142   -1.7822681   0.01349281   -1.7687753 
  308000    2.6404426   -1.7815153  0.012628248   -1.7688871 
  309000    2.6239991   -1.7827398  0.012549605   -1.7701901 
  310000    2.0801539    -1.789255 0.0099485969   -1.7793064 
  311000    2.8000253   -1.7880951  0.013391472   -1.7747036 
  312000    2.1883044   -1.7814601   0.01046584   -1.7709943 
  313000    2.8468955   -1.7828722  0.013615634   -1.7692565 
  314000    2.4424906   -1.7869488  0.011681518   -1.7752672 
  315000    2.9256674   -1.7874879  0.013992371   -1.7734955 
  316000    2.5503713     -1.78382   0.01219747   -1.7716225 
  317000    2.5392003   -1.7822734  0.012144044   -1.7701294 
  318000    3.1048824   -1.7839235  0.014849489    -1.769074 
  319000    2.4991429   -1.7841192  0.011952464   -1.7721667 
  320000    3.2353005   -1.7877042   0.01547323    -1.772231 
  321000    3.7783232    -1.785941  0.018070304   -1.7678707 
  322000    2.9750871   -1.7841907  0.014228727   -1.7699619 
  323000    2.9431274   -1.7822621  0.014075876   -1.7681862 
  324000    3.1013682   -1.7850195  0.014832682   -1.7701868 
  325000    2.9564999   -1.7857874  0.014139831   -1.7716476 
  326000    3.0938482   -1.7856249  0.014796717   -1.7708282 
  327000    2.6205778   -1.7871779  0.012533242   -1.7746447 
  328000    2.1446996   -1.7820761  0.010257295   -1.7718188 
  329000     2.520057   -1.7842508  0.012052488   -1.7721983 
  330000    2.5729906   -1.7866686   0.01230565   -1.7743629 
  331000    2.3238858   -1.7860788  0.011114275   -1.7749645 
  332000    2.9758139   -1.7864692  0.014232203    -1.772237 
  333000    2.6866602   -1.7808098  0.012849289   -1.7679605 
  334000    4.1121389   -1.7723575   0.01966682   -1.7526907 
  335000    3.8612897   -1.7780047  0.018467102   -1.7595376 
  336000    3.8666792   -1.7818087  0.018492878   -1.7633158 
  337000    2.7798129   -1.7784359  0.013294804   -1.7651411 
  338000    3.7968157   -1.7762684  0.018158747   -1.7581097 
  339000    3.6786345   -1.7763383  0.017593531   -1.7587448 
  340000    2.7363586   -1.7816454  0.013086978   -1.7685585 
  341000     3.308092    -1.782793  0.015821364   -1.7669716 
  342000    3.1324597   -1.7845087  0.014981381   -1.7695274 
  343000    2.7813241   -1.7842561  0.013302031   -1.7709541 
  344000    2.6941543   -1.7825519  0.012885131   -1.7696667 
  345000    3.0374238   -1.7850398   0.01452686    -1.770513 
  346000    2.9590067   -1.7864651   0.01415182   -1.7723133 
  347000     2.470753   -1.7852832  0.011816686   -1.7734665 
  348000    1.9271286   -1.7825596 0.0092167341   -1.7733428 
  349000    2.9481302   -1.7834134  0.014099802   -1.7693136 
  350000    2.2357464    -1.785821  0.010692737   -1.7751283 
  351000    2.4927118   -1.7873716  0.011921707   -1.7754499 
  352000    2.8622144   -1.7869982  0.013688899   -1.7733093 
  353000    2.5668366   -1.7880483  0.012276218   -1.7757721 
  354000    1.9162081    -1.787835 0.0091645055   -1.7786705 
  355000    2.1932524   -1.7864099  0.010489505   -1.7759204 
  356000    3.0427488   -1.7879459  0.014552327   -1.7733936 
  357000    2.2707731   -1.7888187  0.010860257   -1.7779584 
  358000    1.9893941   -1.7876696 0.0095145269   -1.7781551 
  359000     1.843975   -1.7870373 0.0088190417   -1.7782182 
  360000     2.309124   -1.7852603  0.011043675   -1.7742166 
  361000    2.4027916   -1.7869277  0.011491652   -1.7754361 
  362000    3.0181093   -1.7861413  0.014434486   -1.7717068 
  363000    2.7917347    -1.782912  0.013351821   -1.7695602 
  364000    3.2085797    -1.784246  0.015345435   -1.7689006 
  365000    2.8863222   -1.7834219  0.013804198   -1.7696177 
  366000    2.7493961   -1.7855601  0.013149332   -1.7724108 
  367000    2.7699533   -1.7855596  0.013247649   -1.7723119 
  368000    2.1972844   -1.7835204  0.010508788   -1.7730116 
  369000    2.6234523   -1.7836657   0.01254699   -1.7711187 
  370000    2.4416635   -1.7859149  0.011677562   -1.7742374 
  371000    2.4116418   -1.7862427  0.011533979   -1.7747088 
  372000    2.2536178   -1.7836452   0.01077821    -1.772867 
  373000    2.6473636   -1.7837753  0.012661348    -1.771114 
  374000    2.5190876   -1.7872937  0.012047852   -1.7752458 
  375000    2.3920791    -1.785535  0.011440418   -1.7740946 
  376000    2.1389312   -1.7897364  0.010229707   -1.7795067 
  377000    2.1341824   -1.7882435  0.010206995   -1.7780365 
  378000    1.8929244   -1.7892495  0.009053148   -1.7801964 
  379000    2.1453511    -1.785045  0.010260411   -1.7747846 
  380000    2.5785764   -1.7869211  0.012332365   -1.7745887 
  381000    1.9162368   -1.7868139 0.0091646426   -1.7776492 
  382000    1.9948081   -1.7872952 0.0095404197   -1.7777548 
  383000    1.9564534   -1.7873327 0.0093569836   -1.7779757 
  384000    2.0758327   -1.7874751 0.0099279302   -1.7775472 
  385000    1.8429932   -1.7872513 0.0088143459   -1.7784369 
  386000    1.9842657   -1.7859984 0.0094899992   -1.7765084 
  387000    2.1043845   -1.7889739  0.010064483   -1.7789094 
  388000     1.976631   -1.7877816 0.0094534858   -1.7783281 
  389000    1.7637943    -1.789581 0.0084355671   -1.7811455 
  390000    2.2787646   -1.7889725  0.010898477    -1.778074 
  391000    1.8542256   -1.7887372 0.0088680664   -1.7798692 
  392000    2.0484781   -1.7879339 0.0097971031   -1.7781368 
  393000    1.7207995   -1.7880432 0.0082299394   -1.7798132 
  394000    1.7822336   -1.7884645 0.0085237557   -1.7799408 
  395000    1.8736984   -1.7885948 0.0089611977   -1.7796336 
  396000    1.8258068   -1.7878448   0.00873215   -1.7791126 
  397000     2.182771   -1.7891728  0.010439376   -1.7787334 
  398000    2.0788165   -1.7876154 0.0099422004   -1.7776732 
  399000    2.2458272    -1.789022   0.01074095    -1.778281 
  400000     1.983372   -1.7878129 0.0094857251   -1.7783271 
  401000    1.7058205   -1.7915715 0.0081583002   -1.7834132 
  402000    1.6914609    -1.787288 0.0080896237   -1.7791984 
  403000    1.7496183   -1.7858499 0.0083677686   -1.7774821 
  404000    1.8374082   -1.7857769  0.008787635   -1.7769893 
  405000    1.9021105   -1.7898131 0.0090970821    -1.780716 
  406000    2.0831093   -1.7879155 0.0099627314   -1.7779528 
  407000    2.1535108   -1.7905391  0.010299435   -1.7802396 
  408000    1.6439793    -1.787044 0.0078625372   -1.7791815 
  409000    1.9847938   -1.7898865  0.009492525    -1.780394 
  410000    1.8336541   -1.7878513 0.0087696808   -1.7790817 
  411000    1.6839728   -1.7920752 0.0080538109   -1.7840214 
  412000    1.8282544   -1.7909606  0.008743856   -1.7822167 
  413000    1.5474304   -1.7901178   0.00740078   -1.7827171 
  414000    2.1677698   -1.7889283  0.010367631   -1.7785607 
  415000    2.0621853   -1.7894402 0.0098626597   -1.7795775 
  416000    1.9483297   -1.7889654  0.009318131   -1.7796473 
  417000    2.0575842   -1.7897203 0.0098406545   -1.7798796 
  418000    1.7919798    -1.788749  0.008570368   -1.7801786 
  419000    1.7212755   -1.7903301 0.0082322158   -1.7820979 
  420000    1.6402983    -1.786337 0.0078449321   -1.7784921 
  421000    2.4401519   -1.7875123  0.011670332   -1.7758419 
  422000    2.3503381   -1.7848242  0.011240787   -1.7735834 
  423000    2.6079727   -1.7835995  0.012472956   -1.7711265 
  424000    2.3264771   -1.7856249  0.011126668   -1.7744982 
  425000    2.5999835   -1.7835819  0.012434747   -1.7711472 
  426000    3.0548021   -1.7830986  0.014609974   -1.7684886 
  427000    2.6193157   -1.7844357  0.012527206   -1.7719085 
  428000    2.4978205   -1.7854515   0.01194614   -1.7735054 
  429000    2.2141481   -1.7855793  0.010589441   -1.7749898 
  430000    2.5915351   -1.7845215  0.012394342   -1.7721271 
  431000    2.1819653   -1.7873054  0.010435523   -1.7768698 
  432000    1.7532303   -1.7882841 0.0083850439    -1.779899 
  433000    1.8477093   -1.7863199 0.0088369014    -1.777483 
  434000     3.016689   -1.7841142  0.014427693   -1.7696865 
  435000    2.2022257   -1.7854261   0.01053242   -1.7748937 
  436000    2.1821199   -1.7833281  0.010436262   -1.7728918 
  437000    2.0060653   -1.7867916 0.0095942588   -1.7771973 
  438000    2.2218792   -1.7895529  0.010626416   -1.7789265 
  439000    2.1115509   -1.7908444  0.010098757   -1.7807456 
  440000    1.8455219   -1.7897805 0.0088264396   -1.7809541 
  441000    2.1290296   -1.7885121  0.010182351   -1.7783297 
  442000    1.8409967   -1.7877855 0.0088047975   -1.7789807 
  443000    2.0083976   -1.7919974 0.0096054134    -1.782392 
  444000    1.8298877    -1.788979 0.0087516672   -1.7802273 
  445000    1.9483047   -1.7895395 0.0093180114   -1.7802215 
  446000    2.3188381   -1.7891538  0.011090134   -1.7780637 
  447000    2.4406426   -1.7882111  0.011672679   -1.7765384 
  448000    2.2422862   -1.7901232  0.010724015   -1.7793992 
  449000    2.0573567   -1.7920519 0.0098395664   -1.7822124 
  450000    1.8945291   -1.7895885 0.0090608227   -1.7805277 
  451000    1.7752246   -1.7875566 0.0084902343   -1.7790664 
  452000    2.0425756   -1.7902694 0.0097688737   -1.7805005 
  453000     1.695682   -1.7896343 0.0081098117   -1.7815245 
  454000    2.0091503   -1.7888976 0.0096090133   -1.7792886 
  455000    1.9293344   -1.7884394 0.0092272837   -1.7792121 
  456000    2.0423886   -1.7900122 0.0097679795   -1.7802442 
  457000    1.8334805   -1.7880696 0.0087688505   -1.7793007 
  458000    1.6843249   -1.7888615 0.0080554949    -1.780806 
  459000    1.7275431   -1.7880613 0.0082621916   -1.7797991 
  460000    1.9938851   -1.7884625 0.0095360057   -1.7789265 
  461000    2.0269732   -1.7905218 0.0096942537   -1.7808275 
  462000    1.9008988   -1.7890058 0.0090912866   -1.7799145 
  463000    1.7601791   -1.7899818 0.0084182773   -1.7815636 
  464000    2.3281168   -1.7886137   0.01113451   -1.7774792 
  465000     1.601055   -1.7867183 0.0076572461   -1.7790611 
  466000    1.8204122   -1.7886002 0.0087063495   -1.7798939 
  467000      2.20893   -1.7884154  0.010564485   -1.7778509 
  468000     2.125409   -1.7894837  0.010165035   -1.7793187 
  469000    2.1048367   -1.7887724  0.010066645   -1.7787058 
  470000    1.8494563   -1.7899545 0.0088452567   -1.7811093 
  471000    1.8296233   -1.7859703 0.0087504027   -1.7772198 
  472000    1.9703231   -1.7889922  0.009423317   -1.7795688 
  473000    1.5873246   -1.7918245 0.0075915787   -1.7842329 
  474000    1.7230944    -1.790121  0.008240915   -1.7818801 
  475000    1.6177915   -1.7890784 0.0077372906   -1.7813411 
  476000    2.0563786   -1.7874716 0.0098348887   -1.7776367 
  477000    2.1920389   -1.7884554  0.010483701   -1.7779717 
  478000    1.7048505   -1.7900905 0.0081536614   -1.7819368 
  479000    1.6316946   -1.7878104 0.0078037841   -1.7800066 
  480000     1.576155   -1.7900473  0.007538159   -1.7825091 
  481000    1.6747769   -1.7893781 0.0080098305   -1.7813683 
  482000    1.9871411   -1.7893743 0.0095037512   -1.7798705 
  483000    1.8847416   -1.7895769 0.0090140127   -1.7805629 
  484000    2.2133371   -1.7898741  0.010585562   -1.7792885 
  485000    2.4504116   -1.7911104  0.011719401    -1.779391 
  486000    1.7342833   -1.7862734 0.0082944272    -1.777979 
  487000    1.8795567   -1.7900973 0.0089892155   -1.7811081 
  488000    1.6360392   -1.7868584 0.0078245628   -1.7790339 
  489000    1.7643731   -1.7882539 0.0084383357   -1.7798156 
  490000    1.7674654   -1.7873457  0.008453125   -1.7788926 
  491000    2.2681304   -1.7904023  0.010847618   -1.7795547 
  492000    1.9825914   -1.7866832 0.0094819919   -1.7772012 
  493000    1.9142673   -1.7892534 0.0091552232   -1.7800982 
  494000    2.0886725   -1.7882169  0.009989338   -1.7782275 
  495000     2.797838   -1.7841567  0.013381011   -1.7707756 
  496000    2.4299243   -1.7891571  0.011621418   -1.7775357 
  497000    2.5118589   -1.7858412   0.01201328   -1.7738279 
  498000    2.1994977   -1.7852695  0.010519373   -1.7747501 
  499000    1.8116251   -1.7874914 0.0086643241   -1.7788271 
  500000    2.5037604   -1.7894221  0.011974548   -1.7774476 
  501000    1.8265171   -1.7908295 0.0087355472   -1.7820939 
  502000    1.6451609   -1.7894242 0.0078681881    -1.781556 
  503000     1.631251   -1.7850564 0.0078016624   -1.7772547 
  504000    2.4654605   -1.7885408  0.011791374   -1.7767495 
  505000    1.7741572   -1.7884807 0.0084851293   -1.7799955 
  506000    1.7764357   -1.7914382 0.0084960266   -1.7829422 
  507000    2.1253916   -1.7905783  0.010164952   -1.7804133 
  508000    1.9840681   -1.7907272 0.0094890545   -1.7812381 
  509000    2.0049666   -1.7871556  0.009589004   -1.7775666 
  510000    1.5768042   -1.7890991 0.0075412638   -1.7815578 
  511000    1.6967677   -1.7909496  0.008115004   -1.7828346 
  512000    1.7749193   -1.7902633  0.008488774   -1.7817746 
  513000    1.8400032   -1.7876921 0.0088000462   -1.7788921 
  514000    1.9779413   -1.7900759 0.0094597522   -1.7806161 
  515000    1.8060806   -1.7892416 0.0086378067   -1.7806038 
  516000    1.9987079   -1.7920292 0.0095590709   -1.7824701 
  517000    2.1730913   -1.7869071  0.010393081    -1.776514 
  518000    2.1492109   -1.7873987   0.01027887   -1.7771198 
  519000    1.8952777   -1.7881123 0.0090644033   -1.7790479 
  520000    1.8071397   -1.7891931 0.0086428723   -1.7805503 
  521000     2.054175   -1.7877431 0.0098243493   -1.7779187 
  522000    1.8639699   -1.7871861 0.0089146696   -1.7782714 
  523000    2.1806756   -1.7905663  0.010429354   -1.7801369 
  524000     1.946058   -1.7907355 0.0093072664   -1.7814282 
  525000    1.6757491   -1.7910335 0.0080144802    -1.783019 
  526000    2.2193092    -1.790648  0.010614125   -1.7800339 
  527000    2.0401622   -1.7885762 0.0097573315   -1.7788188 
  528000     2.040264    -1.788658 0.0097578183   -1.7789002 
  529000    1.5575938   -1.7918205 0.0074493878   -1.7843711 
  530000    2.1410923   -1.7908151  0.010240042   -1.7805751 
  531000    2.0720762   -1.7918678 0.0099099643   -1.7819578 
  532000    2.1404154   -1.7889202  0.010236805   -1.7786834 
  533000    2.2134285   -1.7887374  0.010585999   -1.7781514 
  534000    1.7751454   -1.7881799 0.0084898553     -1.77969 
  535000    1.8117147   -1.7919132 0.0086647526   -1.7832484 
  536000    1.8662434   -1.7887896 0.0089255431    -1.779864 
  537000    2.4241254    -1.789986  0.011593684   -1.7783923 
  538000    2.0206828   -1.7876274 0.0096641687   -1.7779632 
  539000    2.1163078   -1.7894956  0.010121507   -1.7793741 
  540000    2.0943422   -1.7890897  0.010016454   -1.7790733 
  541000     1.973104    -1.790134 0.0094366171   -1.7806974 
  542000    1.5388401   -1.7861002 0.0073596957   -1.7787405 
  543000    2.1266555   -1.7864851  0.010170997   -1.7763141 
  544000    1.6059706   -1.7891451 0.0076807558   -1.7814643 
  545000     1.964394   -1.7904744 0.0093949605   -1.7810794 
  546000    2.3814874   -1.7898462  0.011389762   -1.7784565 
  547000    2.0415239   -1.7908563 0.0097638438   -1.7810925 
  548000    2.0386075   -1.7892751 0.0097498959   -1.7795252 
  549000    1.8757131   -1.7896276 0.0089708333   -1.7806568 
  550000    1.8539179    -1.788813  0.008866595   -1.7799464 
  551000    1.7270239   -1.7898877 0.0082597082    -1.781628 
  552000    1.8732597   -1.7880894 0.0089590992   -1.7791303 
  553000    1.9787631   -1.7878845 0.0094636828   -1.7784208 
  554000    2.2422751   -1.7887918  0.010723962   -1.7780678 
  555000    1.8626674   -1.7916025 0.0089084402   -1.7826941 
  556000     1.955846   -1.7896079 0.0093540788   -1.7802538 
  557000    2.2314099   -1.7900049  0.010671998   -1.7793329 
  558000    1.7489549   -1.7858468 0.0083645961   -1.7774822 
  559000    2.1730052   -1.7848283   0.01039267   -1.7744357 
  560000    2.7746371   -1.7858738   0.01327005   -1.7726037 
  561000    2.7406368   -1.7852101  0.013107439   -1.7721027 
  562000    2.3301854   -1.7829848  0.011144404   -1.7718404 
  563000    2.1395226    -1.782618  0.010232535   -1.7723854 
  564000    3.2479509   -1.7865408  0.015533733   -1.7710071 
  565000    2.4901652   -1.7875273  0.011909527   -1.7756178 
  566000    2.0832329   -1.7878315 0.0099633223   -1.7778682 
  567000     2.212716   -1.7898223  0.010582592   -1.7792397 
  568000    1.8242567   -1.7872085 0.0087247366   -1.7784838 
  569000    2.2195047   -1.7882326  0.010615059   -1.7776176 
  570000    1.9191596   -1.7887428 0.0091786216   -1.7795642 
  571000    1.9285638   -1.7883072  0.009223598   -1.7790836 
  572000    2.6654083   -1.7900369  0.012747649   -1.7772892 
  573000    2.4615754   -1.7860676  0.011772793   -1.7742948 
  574000    2.2653698   -1.7876967  0.010834415   -1.7768623 
  575000     2.163788   -1.7872867  0.010348588   -1.7769381 
  576000    1.9158285   -1.7902946 0.0091626898   -1.7811319 
  577000    2.1507009   -1.7892199  0.010285997   -1.7789339 
  578000    1.6812208   -1.7901581 0.0080406495   -1.7821175 
  579000    2.1621617   -1.7907889  0.010340809   -1.7804481 
  580000     2.169164   -1.7889616  0.010374299   -1.7785873 
  581000     1.934549   -1.7861137 0.0092522229   -1.7768615 
  582000    1.6587507   -1.7899427 0.0079331829   -1.7820095 
  583000    2.1925691   -1.7896622  0.010486237   -1.7791759 
  584000    1.8185781   -1.7893886 0.0086975776    -1.780691 
  585000    1.7439712   -1.7897782  0.008340761   -1.7814374 
  586000    2.1341432   -1.7911478  0.010206808    -1.780941 
  587000    2.0810457   -1.7877318 0.0099528621   -1.7777789 
  588000    2.2112529   -1.7895477  0.010575594   -1.7789721 
  589000    2.3905468   -1.7886901   0.01143309    -1.777257 
  590000    2.4474408   -1.7904885  0.011705193   -1.7787833 
  591000    1.5985234   -1.7873841 0.0076451386    -1.779739 
  592000    2.3943414   -1.7860806  0.011451238   -1.7746294 
  593000    1.8768792   -1.7866315 0.0089764103   -1.7776551 
  594000    1.5394461   -1.7890754 0.0073625937   -1.7817128 
  595000    1.5296504   -1.7893676 0.0073157447   -1.7820519 
  596000    2.2755286    -1.783285  0.010883001    -1.772402 
  597000    1.9623401   -1.7839343 0.0093851373   -1.7745492 
  598000    1.8189303   -1.7873942 0.0086992621    -1.778695 
  599000    1.8526472   -1.7885883 0.0088605173   -1.7797277 
  600000    2.0018691   -1.7889514   0.00957419   -1.7793772 
  601000    1.7065298   -1.7870313 0.0081616926   -1.7788696 
  602000    1.9095702   -1.7841149  0.009132759   -1.7749822 
  603000    1.9980003   -1.7847102 0.0095556867   -1.7751545 
  604000    2.7193578   -1.7845501   0.01300567   -1.7715445 
  605000    2.2725663   -1.7879748  0.010868833    -1.777106 
  606000     2.173782    -1.784231  0.010396385   -1.7738347 
  607000    2.0392691   -1.7839097 0.0097530599   -1.7741567 
  608000    2.3781284   -1.7828991  0.011373697   -1.7715254 
  609000    2.6203189   -1.7867285  0.012532004   -1.7741965 
  610000    2.7704826   -1.7821223   0.01325018   -1.7688721 
  611000    2.4891133    -1.787076  0.011904497   -1.7751715 
  612000    1.5438772   -1.7870457 0.0073837862   -1.7796619 
  613000    2.5635819   -1.7840891  0.012260652   -1.7718284 
  614000    2.9973553   -1.7847084  0.014335227   -1.7703732 
  615000    2.0464199   -1.7856673 0.0097872599     -1.77588 
  616000    2.7136793   -1.7862723  0.012978511   -1.7732937 
  617000     2.109076   -1.7866812   0.01008692   -1.7765943 
  618000    3.3442934   -1.7826008  0.015994502   -1.7666063 
  619000    2.5711805   -1.7857492  0.012296993   -1.7734522 
  620000    2.4993036   -1.7862008  0.011953233   -1.7742476 
  621000    2.5207505    -1.784098  0.012055805   -1.7720422 
  622000    2.8682739   -1.7865262  0.013717879   -1.7728083 
  623000    2.5376279   -1.7840281  0.012136524   -1.7718916 
  624000    2.6174831   -1.7854557  0.012518441   -1.7729373 
  625000    2.7043612   -1.7843731  0.012933947   -1.7714392 
  626000    2.6290992   -1.7872346  0.012573997   -1.7746606 
  627000    2.1913981   -1.7860301  0.010480636   -1.7755494 
  628000    2.2737163   -1.7899958  0.010874333   -1.7791215 
  629000    1.7242557    -1.790459 0.0082464692   -1.7822125 
  630000    1.9776346   -1.7903696 0.0094582856   -1.7809113 
  631000    2.0979112    -1.787474  0.010033523   -1.7774405 
  632000    1.4781849   -1.7894415 0.0070696047   -1.7823718 
  633000    1.7850084   -1.7851716 0.0085370263   -1.7766346 
  634000    2.2327439   -1.7902349  0.010678378   -1.7795565 
  635000    1.7755899   -1.7882998 0.0084919815   -1.7798078 
  636000    1.8762812   -1.7858499   0.00897355   -1.7768763 
  637000    1.9000724   -1.7874211 0.0090873342   -1.7783338 
  638000    1.9244604   -1.7873758 0.0092039731   -1.7781719 
  639000    2.4649041   -1.7887671  0.011788713   -1.7769784 
  640000    2.2180513   -1.7919695  0.010608108   -1.7813614 
  641000    1.9283297   -1.7895038 0.0092224785   -1.7802813 
  642000    2.1563411    -1.786495  0.010312971    -1.776182 
  643000     1.686949   -1.7896152 0.0080680449   -1.7815472 
  644000     1.766846   -1.7877653 0.0084501625   -1.7793151 
  645000     2.051747   -1.7888091 0.0098127371   -1.7789964 
  646000    2.0278775   -1.7923441 0.0096985783   -1.7826455 
  647000    2.0861219   -1.7912191 0.0099771395   -1.7812419 
  648000    1.6358803   -1.7891026 0.0078238027   -1.7812788 
  649000    2.0463094   -1.7862862 0.0097867315   -1.7764994 
  650000    1.7187617   -1.7860126 0.0082201934   -1.7777924 
  651000    2.0227972   -1.7916355 0.0096742811   -1.7819612 
  652000    1.9736066   -1.7924539 0.0094390209   -1.7830149 
  653000    2.1676695   -1.7907555  0.010367151   -1.7803883 
  654000    1.8560599   -1.7881044 0.0088768392   -1.7792275 
  655000    1.7192205   -1.7865519 0.0082223877   -1.7783295 
  656000    2.0704815   -1.7887799 0.0099023375   -1.7788776 
  657000    2.0992057   -1.7908058  0.010039715    -1.780766 
  658000    2.0162457   -1.7902737 0.0096429478   -1.7806307 
  659000    1.8428138   -1.7893209 0.0088134879   -1.7805074 
  660000    2.1356471    -1.787214     0.010214       -1.777 
  661000    2.0293279   -1.7887316 0.0097055151   -1.7790261 
  662000     1.864312   -1.7905974 0.0089163061   -1.7816811 
  663000    2.4517284   -1.7894999  0.011725698   -1.7777742 
  664000    1.2995515   -1.7903579 0.0062152678   -1.7841426 
  665000     1.896518   -1.7885176 0.0090703352   -1.7794473 
  666000    1.6395807   -1.7907066 0.0078415002   -1.7828651 
  667000    2.0987677    -1.791916   0.01003762   -1.7818783 
  668000    2.1454524    -1.791516  0.010260895   -1.7812551 
  669000    1.7804611   -1.7917365 0.0085152785   -1.7832212 
  670000    1.6289438   -1.7886406 0.0077906277     -1.78085 
  671000    2.0167325   -1.7900642 0.0096452761   -1.7804189 
  672000     1.960226   -1.7898964 0.0093750265   -1.7805214 
  673000    2.0828335   -1.7908161 0.0099614121   -1.7808547 
  674000    2.1855051   -1.7924966  0.010452452   -1.7820441 
  675000    1.9102691   -1.7895029 0.0091361013   -1.7803668 
  676000    1.7952999   -1.7885159 0.0085862466   -1.7799296 
  677000    2.1771365   -1.7873597  0.010412428   -1.7769472 
  678000    2.3805052   -1.7869292  0.011385064   -1.7755441 
  679000     2.000337   -1.7890449 0.0095668627   -1.7794781 
  680000    1.9509703   -1.7931959 0.0093307601   -1.7838651 
  681000     1.413507   -1.7897801 0.0067602742   -1.7830198 
  682000    2.5218601   -1.7858593  0.012061112   -1.7737981 
  683000    2.5133964   -1.7898311  0.012020633   -1.7778104 
  684000    2.4413461   -1.7879854  0.011676044   -1.7763093 
  685000    2.1489784   -1.7907912  0.010277759   -1.7805134 
  686000    2.1044534     -1.78631  0.010064812   -1.7762452 
  687000    1.8626747   -1.7879034 0.0089084752   -1.7789949 
  688000    2.0713382   -1.7855296 0.0099064345   -1.7756232 
  689000    2.2176183   -1.7894708  0.010606037   -1.7788647 
  690000    2.1361164    -1.786424  0.010216244   -1.7762078 
  691000     2.662682   -1.7822651  0.012734611   -1.7695305 
  692000     2.462317    -1.780463   0.01177634   -1.7686866 
  693000    2.6680579   -1.7848466  0.012760321   -1.7720862 
  694000    3.2976062    -1.787353  0.015771215   -1.7715818 
  695000    2.4935734   -1.7855157  0.011925827   -1.7735899 
  696000     2.857701   -1.7798386  0.013667313   -1.7661713 
  697000     3.467193   -1.7781149  0.016582285   -1.7615326 
  698000    3.5807981   -1.7773009  0.017125616   -1.7601752 
  699000     4.143446   -1.7783109   0.01981655   -1.7584944 
  700000     4.048813   -1.7798336  0.019363956   -1.7604697 
  701000    3.2813185    -1.776453  0.015693317   -1.7607597 
  702000    3.3460491   -1.7729494  0.016002899   -1.7569465 
  703000    3.1627155   -1.7773695  0.015126083   -1.7622434 
  704000    3.8183623   -1.7761775  0.018261797   -1.7579157 
  705000    3.1178009   -1.7791881  0.014911274   -1.7642769 
  706000    2.7275718   -1.7852072  0.013044954   -1.7721622 
  707000    2.3250349   -1.7862002  0.011119771   -1.7750805 
  708000    2.9464152   -1.7844605    0.0140916   -1.7703689 
  709000    1.9878309   -1.7854633 0.0095070503   -1.7759563 
  710000    1.9276156   -1.7861181 0.0092190631    -1.776899 
  711000    1.4191112   -1.7860069 0.0067870772   -1.7792199 
  712000    1.8581238   -1.7896542 0.0088867099   -1.7807674 
  713000    1.7652012   -1.7886911 0.0084422961   -1.7802488 
  714000    2.1678791   -1.7884673  0.010368154   -1.7780991 
  715000    2.0419009   -1.7890386  0.009765647   -1.7792729 
  716000    2.4634156   -1.7897248  0.011781594   -1.7779432 
  717000    2.9650485   -1.7900818  0.014180716   -1.7759011 
  718000     2.182346   -1.7890515  0.010437343   -1.7786142 
  719000    1.8104291   -1.7868305 0.0086586043   -1.7781719 
  720000     1.740792   -1.7823374 0.0083255562   -1.7740118 
  721000    2.1515516    -1.790404  0.010290065   -1.7801139 
  722000    1.6866376   -1.7860083 0.0080665557   -1.7779417 
  723000    2.0556557   -1.7892954  0.009831431    -1.779464 
  724000    1.8550841    -1.789006 0.0088721721   -1.7801338 
  725000    3.4189052   -1.7827543  0.016351343   -1.7664029 
  726000    2.6873225   -1.7842666  0.012852457   -1.7714142 
  727000      2.75918   -1.7887548  0.013196124   -1.7755587 
  728000    3.0303469   -1.7829121  0.014493014   -1.7684191 
  729000    2.8712373   -1.7839391  0.013732052    -1.770207 
  730000    2.2801773   -1.7812728  0.010905234   -1.7703675 
  731000    2.8289641    -1.783135  0.013529875   -1.7696051 
  732000    2.0228617   -1.7880572 0.0096745896   -1.7783826 
  733000    3.1377803   -1.7858264  0.015006828   -1.7708195 
  734000     2.584943   -1.7817781  0.012362814   -1.7694152 
  735000    2.5141329   -1.7843705  0.012024156   -1.7723464 
  736000    3.0137643   -1.7851396  0.014413706   -1.7707259 
  737000    2.2174124    -1.784989  0.010605053   -1.7743839 
  738000    2.3122622   -1.7887914  0.011058684   -1.7777327 
  739000    2.3715622   -1.7846993  0.011342294    -1.773357 
  740000     2.149634   -1.7838531  0.010280894   -1.7735723 
  741000    2.0341568   -1.7840379 0.0097286098   -1.7743093 
  742000    2.2900342   -1.7863186  0.010952376   -1.7753662 
  743000    2.8354054   -1.7834459  0.013560682   -1.7698852 
  744000    3.0414683   -1.7857934  0.014546204   -1.7712472 
  745000    2.4340299   -1.7833036  0.011641053   -1.7716626 
  746000    2.7720863   -1.7826968   0.01325785   -1.7694389 
  747000    2.6158999   -1.7845955  0.012510869   -1.7720846 
  748000    2.6918566   -1.7867804  0.012874142   -1.7739063 
  749000    2.3484458   -1.7815067  0.011231736    -1.770275 
  750000    2.2347754   -1.7859467  0.010688093   -1.7752586 
  751000    2.2347455    -1.777748   0.01068795     -1.76706 
  752000    3.7544177   -1.7799951  0.017955973   -1.7620391 
  753000    3.4149249   -1.7806351  0.016332306   -1.7643028 
  754000    3.2827418   -1.7794973  0.015700124   -1.7637971 
  755000    2.6440239   -1.7777526  0.012645376   -1.7651072 
  756000    3.7454517   -1.7832327  0.017913092   -1.7653196 
  757000    3.4694283   -1.7786084  0.016592976   -1.7620154 
  758000    3.4249429   -1.7800099  0.016380219   -1.7636296 
  759000    3.7769085    -1.777734  0.018063539   -1.7596705 
  760000    3.3090297   -1.7796759  0.015825849     -1.76385 
  761000     3.380425   -1.7784191  0.016167306   -1.7622518 
  762000    3.1644982    -1.781706  0.015134609   -1.7665714 
  763000    3.7044948   -1.7789541  0.017717211   -1.7612369 
  764000    3.7578308   -1.7787513  0.017972297    -1.760779 
  765000    3.7716259    -1.774699  0.018038274   -1.7566608 
  766000    3.8051962   -1.7843049  0.018198828    -1.766106 
  767000    2.8284661   -1.7793606  0.013527494   -1.7658331 
  768000    4.0017757   -1.7803047  0.019138994   -1.7611657 
  769000    3.3284975   -1.7768887  0.015918956   -1.7609698 
  770000     4.032769    -1.781525  0.019287223   -1.7622378 
  771000    3.7651208   -1.7791636  0.018007162   -1.7611564 
  772000     3.307894    -1.783757  0.015820418   -1.7679366 
  773000    3.3334344   -1.7769595  0.015942568   -1.7610169 
  774000    3.1811643    -1.778718  0.015214317   -1.7635037 
  775000    3.6268157   -1.7791307  0.017345701    -1.761785 
  776000     3.529075    -1.779817  0.016878244   -1.7629387 
  777000    3.4550941   -1.7732147  0.016524421   -1.7566903 
  778000    5.7265919   -1.7694835  0.027388144   -1.7420953 
  779000    4.0779551   -1.7653824  0.019503332   -1.7458791 
  780000    3.9674074   -1.7715095  0.018974623   -1.7525349 
  781000    5.3865129   -1.7709928  0.025761673   -1.7452311 
  782000    4.3256762   -1.7735676  0.020688089   -1.7528795 
  783000    4.8752966   -1.7725104  0.023316717   -1.7491937 
  784000     5.235679    -1.766135  0.025040291   -1.7410947 
  785000    5.9437002    -1.764669  0.028426491   -1.7362425 
  786000    4.4224757   -1.7484518  0.021151044   -1.7273007 
  787000    7.0102594    -1.777231  0.033527444   -1.7437035 
  788000    6.3006424   -1.7715847  0.030133612   -1.7414511 
  789000    4.1351052   -1.7686147  0.019776659    -1.748838 
  790000    5.9218941    -1.774661  0.028322201   -1.7463388 
  791000    4.8094329     -1.76839  0.023001716   -1.7453883 
  792000    4.9947899   -1.7690018  0.023888209   -1.7451136 
  793000     5.379821   -1.7630353  0.025729668   -1.7373057 
  794000    7.3494999   -1.7713647  0.035149904   -1.7362148 
  795000    4.1079774   -1.7685179  0.019646917    -1.748871 
  796000    4.8611531   -1.7648014  0.023249074   -1.7415523 
  797000    6.0536775   -1.7668742  0.028952472   -1.7379217 
  798000    6.3631424   -1.7617456  0.030432526    -1.731313 
  799000    6.3918736   -1.7596203  0.030569937   -1.7290504 
  800000    6.3142777    -1.767467  0.030198825   -1.7372681 
  801000    7.3526637   -1.7681814  0.035165036   -1.7330164 
  802000    6.9525135   -1.7628639  0.033251267   -1.7296126 
  803000    7.8325423   -1.7665579  0.037460115   -1.7290978 
  804000    6.5156044   -1.7603975  0.031161695   -1.7292359 
  805000    5.9971304   -1.7658127  0.028682028   -1.7371307 
  806000    5.5299199   -1.7683822  0.026447535   -1.7419347 
  807000    5.1915459    -1.776253  0.024829219   -1.7514238 
  808000    4.6465791   -1.7748637  0.022222847   -1.7526409 
  809000    6.0541857    -1.772958  0.028954902   -1.7440031 
  810000    4.5463853   -1.7731574  0.021743658   -1.7514137 
  811000     4.938128    -1.769391  0.023617216   -1.7457737 
  812000    4.4354232   -1.7708818  0.021212968   -1.7496689 
  813000    4.1760549   -1.7707746  0.019972506   -1.7508021 
  814000    4.4792225   -1.7697773  0.021422443   -1.7483548 
  815000    3.9551856   -1.7741651  0.018916171   -1.7552489 
  816000    4.8240794   -1.7686628  0.023071765    -1.745591 
  817000    5.5243604   -1.7748229  0.026420946   -1.7484019 
  818000    5.2801628   -1.7701206   0.02525304   -1.7448675 
  819000    4.8117514   -1.7727005  0.023012804   -1.7496877 
  820000    4.7706177   -1.7713812  0.022816077   -1.7485651 
  821000    3.1241145   -1.7710258  0.014941469   -1.7560843 
  822000    3.6313588   -1.7773082  0.017367429   -1.7599408 
  823000    3.8606316   -1.7800214  0.018463955   -1.7615574 
  824000    3.6337078   -1.7823158  0.017378663   -1.7649371 
  825000     2.682354   -1.7805196  0.012828694   -1.7676909 
  826000     3.418833   -1.7752617  0.016350997   -1.7589107 
  827000    3.8668296   -1.7762445  0.018493597   -1.7577509 
  828000    4.4788546   -1.7792948  0.021420684   -1.7578741 
  829000    3.7488157    -1.781391  0.017929181   -1.7634618 
  830000    3.5947378   -1.7833268  0.017192284   -1.7661345 
  831000    4.6536963   -1.7766048  0.022256886   -1.7543479 
  832000     4.072984   -1.7779501  0.019479557   -1.7584706 
  833000    3.6293965    -1.782661  0.017358044    -1.765303 
  834000    3.5439566   -1.7840794  0.016949417     -1.76713 
  835000    4.4631277   -1.7775378  0.021345468   -1.7561923 
  836000    3.4811907   -1.7793201  0.016649231   -1.7626709 
  837000    3.6471493   -1.7771583  0.017442949   -1.7597154 
  838000    4.5309209   -1.7766443  0.021669697   -1.7549747 
  839000    4.4556629   -1.7809645  0.021309767   -1.7596548 
  840000    3.0390937   -1.7791242  0.014534847   -1.7645894 
  841000    4.3329646    -1.779557  0.020722947    -1.758834 
  842000    3.4277138   -1.7813804  0.016393471    -1.764987 
  843000    3.2914149   -1.7758176  0.015741605    -1.760076 
  844000    3.3811112   -1.7748648  0.016170588   -1.7586942 
  845000    3.2577031   -1.7786215  0.015580374   -1.7630412 
  846000    4.4393945    -1.777793  0.021231961    -1.756561 
  847000    3.9676121   -1.7808352  0.018975602   -1.7618596 
  848000     3.491445   -1.7786362  0.016698273   -1.7619379 
  849000    3.7113104   -1.7797729  0.017749807   -1.7620231 
  850000    3.7012329   -1.7808404  0.017701611   -1.7631388 
  851000    3.5397618   -1.7796936  0.016929355   -1.7627643 
  852000    3.1979597   -1.7777787  0.015294643   -1.7624841 
  853000    3.5280997   -1.7813459  0.016873579   -1.7644724 
  854000     2.854309   -1.7787127   0.01365109   -1.7650617 
  855000    3.9030523   -1.7786811  0.018666837   -1.7600143 
  856000    3.5443205   -1.7799242  0.016951157   -1.7629731 
  857000    3.0047552   -1.7820113  0.014370618   -1.7676406 
  858000     2.494892   -1.7848992  0.011932134   -1.7729671 
  859000    2.6854261   -1.7870962  0.012843387   -1.7742528 
  860000     2.193568   -1.7827805  0.010491014   -1.7722895 
  861000    2.9352822   -1.7834162  0.014038355   -1.7693778 
  862000    2.4384656   -1.7846819  0.011662267   -1.7730196 
  863000    1.9424436   -1.7872299 0.0092899798   -1.7779399 
  864000    2.7721777   -1.7870338  0.013258287   -1.7737755 
  865000    2.8957131   -1.7881497  0.013849111   -1.7743006 
  866000    2.5441139   -1.7828231  0.012167544   -1.7706556 
  867000    2.6475678   -1.7882907  0.012662325   -1.7756284 
  868000    2.5203007   -1.7857791  0.012053654   -1.7737255 
  869000     2.442683   -1.7858452  0.011682438   -1.7741628 
  870000     2.370007   -1.7843965  0.011334856   -1.7730616 
  871000    2.7777732   -1.7846256  0.013285048   -1.7713406 
  872000    2.7867308   -1.7852469  0.013327889   -1.7719191 
  873000    2.2780072   -1.7880744  0.010894855   -1.7771795 
  874000     2.133259    -1.787255  0.010202579   -1.7770525 
  875000    1.8995701   -1.7893872 0.0090849322   -1.7803023 
  876000    2.4889886   -1.7907664    0.0119039   -1.7788625 
  877000    2.1384541     -1.79028  0.010227425   -1.7800526 
  878000    2.4562468   -1.7890823  0.011747308    -1.777335 
  879000    1.9953211   -1.7902038 0.0095428734   -1.7806609 
  880000    2.0227396   -1.7866343 0.0096740056   -1.7769603 
  881000     2.280443   -1.7833234  0.010906504   -1.7724169 
  882000    2.2191997   -1.7855844  0.010613601   -1.7749708 
  883000    2.7556551   -1.7854831  0.013179266   -1.7723039 
  884000    3.7536282   -1.7746778  0.017952198   -1.7567256 
  885000    3.2540532    -1.777455  0.015562917   -1.7618921 
  886000    3.8959543   -1.7741204   0.01863289   -1.7554875 
  887000    3.7788879   -1.7767117  0.018073005   -1.7586387 
  888000    4.0060233   -1.7751345  0.019159308   -1.7559752 
  889000     4.401657   -1.7701622  0.021051476   -1.7491107 
  890000    5.2650794   -1.7702239  0.025180902    -1.745043 
  891000    4.8638402   -1.7703978  0.023261926   -1.7471359 
  892000    4.5806238   -1.7728191  0.021907408   -1.7509117 
  893000    4.6669317   -1.7735906  0.022320186   -1.7512704 
  894000    4.8837111    -1.767335  0.023356961   -1.7439781 
  895000    5.8103523   -1.7700823  0.027788738   -1.7422936 
  896000    4.7907139    -1.767718   0.02291219   -1.7448058 
  897000    4.8405979   -1.7712777  0.023150766   -1.7481269 
  898000    5.4789569   -1.7740274  0.026203798   -1.7478236 
  899000    5.2480116   -1.7699535  0.025099273   -1.7448542 
  900000    5.3970961   -1.7703204  0.025812288   -1.7445081 
  901000    3.8266645   -1.7779148  0.018301503   -1.7596133 
  902000     5.434223   -1.7695905  0.025989853   -1.7436006 
  903000    4.6145183   -1.7710124  0.022069512   -1.7489429 
  904000    6.3477444   -1.7740881  0.030358883   -1.7437292 
  905000    4.4349201   -1.7676756  0.021210561   -1.7464651 
  906000    4.6709918   -1.7717123  0.022339604   -1.7493727 
  907000    5.3517383   -1.7648824  0.025595359    -1.739287 
  908000    3.8215367   -1.7703716  0.018276978   -1.7520946 
  909000    4.2636484   -1.7726419  0.020391433   -1.7522505 
  910000    4.0579265   -1.7743974  0.019407542   -1.7549899 
  911000    4.7464834   -1.7694679  0.022700652   -1.7467672 
  912000    5.0154411   -1.7631673  0.023986976   -1.7391803 
  913000    5.3618468   -1.7731924  0.025643705   -1.7475487 
  914000    5.2208816   -1.7757855  0.024969521    -1.750816 
  915000    3.9555356    -1.772718  0.018917845   -1.7538002 
  916000    6.5331976   -1.7658548  0.031245837    -1.734609 
  917000    4.1468096   -1.7700577  0.019832637   -1.7502251 
  918000    3.6877524   -1.7713117  0.017637138   -1.7536746 
  919000    5.4996092   -1.7690527  0.026302571   -1.7427501 
  920000     3.918359   -1.7685185  0.018740043   -1.7497785 
  921000    5.3816408   -1.7728859  0.025738372   -1.7471475 
  922000    5.2418803   -1.7717844   0.02506995   -1.7467144 
  923000    5.1799704   -1.7694567  0.024773858   -1.7446828 
  924000    4.9838609   -1.7716316   0.02383594   -1.7477957 
  925000    6.4614139   -1.7712195  0.030902522    -1.740317 
  926000    3.8383234   -1.7701245  0.018357263   -1.7517672 
  927000    5.4393387   -1.7763165  0.026014319   -1.7503022 
  928000    5.8241791   -1.7649496  0.027854866   -1.7370947 
  929000    5.3760844   -1.7729776  0.025711798   -1.7472658 
  930000    5.7119079   -1.7671575  0.027317915   -1.7398396 
  931000    4.5083953   -1.7680042  0.021561966   -1.7464422 
  932000    5.1752939    -1.769438  0.024751492   -1.7446866 
  933000    6.1467877   -1.7748286  0.029397783   -1.7454308 
  934000    5.4281349   -1.7639143  0.025960736   -1.7379535 
  935000     5.374564   -1.7732729  0.025704526   -1.7475684 
  936000    4.9420687   -1.7736513  0.023636063   -1.7500153 
  937000    5.6491924   -1.7744252  0.027017971   -1.7474072 
  938000    5.4724742   -1.7695992  0.026172794   -1.7434264 
  939000    4.0576378   -1.7765813  0.019406162   -1.7571752 
  940000    4.0446335   -1.7774665  0.019343967   -1.7581225 
  941000     4.246689   -1.7775087  0.020310322   -1.7571984 
  942000    3.1878879     -1.77347  0.015246474   -1.7582236 
  943000    4.1471235   -1.7828647  0.019834138   -1.7630306 
  944000    3.4318264   -1.7762718   0.01641314   -1.7598586 
  945000      3.31714   -1.7806123  0.015864638   -1.7647477 
  946000    3.9753422   -1.7767783  0.019012572   -1.7577657 
  947000    3.2947588   -1.7795766  0.015757597    -1.763819 
  948000    3.7637265   -1.7784331  0.018000494   -1.7604326 
  949000    3.1673295   -1.7818555   0.01514815   -1.7667073 
  950000    3.6034794   -1.7767089  0.017234092   -1.7594748 
  951000    3.1227816   -1.7786193  0.014935094   -1.7636842 
  952000    3.6963607   -1.7766196  0.017678308   -1.7589413 
  953000    3.2534424   -1.7828496  0.015559996   -1.7672896 
  954000    4.2162199   -1.7769347    0.0201646   -1.7567701 
  955000    3.1124478   -1.7800427  0.014885672    -1.765157 
  956000    3.2470478   -1.7762245  0.015529413   -1.7606951 
  957000    3.6715107   -1.7805376   0.01755946   -1.7629781 
  958000    3.9291545   -1.7818371  0.018791674   -1.7630455 
  959000    4.6921876   -1.7793063  0.022440975   -1.7568653 
  960000    3.5541691   -1.7739893  0.016998259   -1.7569911 
  961000    2.8470372   -1.7807643  0.013616312    -1.767148 
  962000    2.6221843   -1.7840359  0.012540925    -1.771495 
  963000    2.1101788   -1.7844567  0.010092195   -1.7743645 
  964000    2.8417943   -1.7816419  0.013591238   -1.7680507 
  965000     2.616057   -1.7843092  0.012511621   -1.7717976 
  966000    2.9381694   -1.7847392  0.014052164   -1.7706871 
  967000    2.9816474   -1.7855062  0.014260102   -1.7712461 
  968000    2.5316295   -1.7866369  0.012107835    -1.774529 
  969000     2.380603   -1.7817225  0.011385532    -1.770337 
  970000    2.4116937   -1.7817398  0.011534228   -1.7702056 
  971000    2.5379271   -1.7857218  0.012137955   -1.7735838 
  972000    2.1675355   -1.7844963   0.01036651   -1.7741298 
  973000    2.0573395   -1.7843522 0.0098394842   -1.7745127 
  974000    2.4671716   -1.7854809  0.011799558   -1.7736813 
  975000    2.9134786   -1.7816182  0.013934077   -1.7676841 
  976000    2.6698594   -1.7861736  0.012768937   -1.7734047 
  977000    2.3521316   -1.7799646  0.011249364   -1.7687152 
  978000    3.1741869   -1.7837981  0.015180947   -1.7686172 
  979000    2.0149716   -1.7849929 0.0096368541    -1.775356 
  980000    2.6752675   -1.7802132  0.012794802   -1.7674184 
  981000    3.0175848   -1.7876728  0.014431978   -1.7732408 
  982000    2.6380132   -1.7851106  0.012616629   -1.7724939 
  983000    2.3242682   -1.7848814  0.011116104   -1.7737653 
  984000    2.4794807   -1.7868199  0.011858427   -1.7749615 
  985000    2.3739265   -1.7841046  0.011353601    -1.772751 
  986000    2.4699958   -1.7852099  0.011813065   -1.7733969 
  987000    2.4357526   -1.7864378  0.011649292   -1.7747885 
  988000    2.7959949   -1.7836522  0.013372196     -1.77028 
  989000    3.5550933   -1.7855613  0.017002679   -1.7685586 
  990000    3.2839974   -1.7872311  0.015706129   -1.7715249 
  991000    1.8975012   -1.7898021 0.0090750375   -1.7807271 
  992000    1.9083828   -1.7862467 0.0091270802   -1.7771196 
  993000    2.5915756   -1.7879119  0.012394535   -1.7755174 
  994000    1.5516623     -1.78649 0.0074210196    -1.779069 
  995000    1.5652859   -1.7876371  0.007486176   -1.7801509 
  996000    1.8320483   -1.7884373 0.0087620005   -1.7796753 
  997000     1.611473   -1.7905336 0.0077070715   -1.7828266 
  998000    1.8441692   -1.7876298 0.0088199705   -1.7788098 
  999000    1.4733897    -1.787976  0.007046671   -1.7809293 
 1000000    2.3311115    -1.783541  0.011148833   -1.7723921 
 1001000    2.4522641   -1.7893632   0.01172826    -1.777635 
 1002000    2.4137994   -1.7854256  0.011544298   -1.7738813 
 1003000    3.1772088   -1.7873293    0.0151954   -1.7721339 
 1004000    2.0652658    -1.781378 0.0098773928   -1.7715006 
 1005000     2.939129   -1.7861147  0.014056753   -1.7720579 
 1006000    2.8891327   -1.7829012  0.013817639   -1.7690836 
 1007000    2.9085221   -1.7884975  0.013910372   -1.7745872 
 1008000    2.4500046     -1.78395  0.011717454   -1.7722325 
 1009000    3.8275797    -1.780189   0.01830588   -1.7618831 
 1010000    3.8884586   -1.7802825  0.018597041   -1.7616855 
 1011000    3.9629844     -1.77816   0.01895347   -1.7592066 
 1012000     3.630168   -1.7758585  0.017361734   -1.7584968 
 1013000     3.275241   -1.7840583  0.015664251   -1.7683941 
 1014000    3.7862783   -1.7788131  0.018108351   -1.7607047 
 1015000     3.751345   -1.7776283  0.017941278    -1.759687 
 1016000    3.3071101   -1.7751538  0.015816669   -1.7593372 
 1017000    2.6472732   -1.7823039  0.012660916    -1.769643 
 1018000    3.1134085   -1.7759817  0.014890266   -1.7610914 
 1019000    4.9830706   -1.7812574   0.02383216   -1.7574253 
 1020000    3.5339631   -1.7767429  0.016901622   -1.7598413 
 1021000     4.215152   -1.7789928  0.020159493   -1.7588333 
 1022000    3.3178888   -1.7824243  0.015868219   -1.7665561 
 1023000    3.2622684   -1.7811473  0.015602208    -1.765545 
 1024000    3.5972861   -1.7769389  0.017204472   -1.7597344 
 1025000    3.0607557   -1.7792266  0.014638448   -1.7645881 
 1026000    3.8573549   -1.7758172  0.018448284    -1.757369 
 1027000    3.2147781   -1.7797567  0.015375079   -1.7643816 
 1028000     3.300608   -1.7715684  0.015785571   -1.7557828 
 1029000    4.5949486   -1.7751291  0.021975918   -1.7531532 
 1030000    3.3101926   -1.7778674  0.015831411    -1.762036 
 1031000    3.6813134   -1.7816139  0.017606343   -1.7640076 
 1032000    3.4268301   -1.7751833  0.016389244    -1.758794 
 1033000    3.8779359   -1.7796799  0.018546715   -1.7611332 
 1034000    4.3298661    -1.773869  0.020708128   -1.7531609 
 1035000    2.6779905   -1.7828858  0.012807825    -1.770078 
 1036000    3.3564245   -1.7757605  0.016052521    -1.759708 
 1037000    4.1346119   -1.7770282    0.0197743   -1.7572539 
 1038000    4.7345145   -1.7759371  0.022643409   -1.7532937 
 1039000      3.38407    -1.785619  0.016184739   -1.7694343 
 1040000    2.3400615   -1.7855505  0.011191638   -1.7743588 
 1041000    2.5655024   -1.7875206  0.012269837   -1.7752507 
 1042000    2.2242255   -1.7865845  0.010637637   -1.7759469 
 1043000    1.6111004   -1.7887387 0.0077052898   -1.7810334 
 1044000    2.6541636   -1.7899033   0.01269387   -1.7772094 
 1045000    1.8048223   -1.7893756  0.008631789   -1.7807438 
 1046000    1.7757978   -1.7863865 0.0084929757   -1.7778936 
 1047000     1.767099    -1.785684 0.0084513723   -1.7772326 
 1048000    1.9344048   -1.7905832 0.0092515332   -1.7813317 
 1049000     2.489334   -1.7896041  0.011905552   -1.7776986 
 1050000    1.5648142   -1.7923087 0.0074839201   -1.7848248 
 1051000    2.3123564   -1.7891895  0.011059134   -1.7781304 
 1052000     2.025907   -1.7875085 0.0096891544   -1.7778193 
 1053000    2.7255777   -1.7822369  0.013035417   -1.7692014 
 1054000    2.4180612   -1.7863882  0.011564681   -1.7748235 
 1055000    2.0923905   -1.7876902   0.01000712   -1.7776831 
 1056000    2.2719349   -1.7860629  0.010865813   -1.7751971 
 1057000     2.786143   -1.7837055  0.013325078   -1.7703804 
 1058000    2.6579086   -1.7865598  0.012711781   -1.7738481 
 1059000    3.1466088    -1.783251  0.015049051    -1.768202 
 1060000    2.8835616   -1.7801533  0.013790995   -1.7663623 
 1061000    2.5321161   -1.7828275  0.012110163   -1.7707173 
 1062000    2.4625409   -1.7844335  0.011777411   -1.7726561 
 1063000    2.0839216    -1.787185 0.0099666163   -1.7772184 
 1064000    2.4420131   -1.7861326  0.011679234   -1.7744534 
 1065000     2.591421   -1.7849151  0.012393796   -1.7725214 
 1066000    2.5779754   -1.7862005   0.01232949    -1.773871 
 1067000    2.7460708   -1.7883404  0.013133428   -1.7752069 
 1068000    1.6968532   -1.7894963 0.0081154131   -1.7813809 
 1069000    1.5143443   -1.7869739 0.0072425416   -1.7797313 
 1070000    3.1734336   -1.7859927  0.015177344   -1.7708154 
 1071000    2.0827813   -1.7869501 0.0099611626   -1.7769889 
 1072000    2.8152073    -1.790056  0.013464082   -1.7765919 
 1073000    1.6010015   -1.7933157 0.0076569904   -1.7856588 
 1074000    1.8319556   -1.7911773 0.0087615573   -1.7824158 
 1075000    1.8741023   -1.7871814  0.008963129   -1.7782183 
 1076000    1.8409599   -1.7893949 0.0088046217   -1.7805903 
 1077000    2.0088035   -1.7917184 0.0096073544    -1.782111 
 1078000    1.8402477   -1.7923921 0.0088012155   -1.7835909 
 1079000    1.8897152   -1.7907803    0.0090378   -1.7817425 
 1080000    2.5075513   -1.7868387  0.011992678   -1.7748461 
 1081000    1.6861768   -1.7923147 0.0080643521   -1.7842503 
 1082000    2.1248857   -1.7897944  0.010162532   -1.7796318 
 1083000    2.4103897   -1.7903179  0.011527991   -1.7787899 
 1084000    1.7161676   -1.7872171 0.0082077865   -1.7790093 
 1085000    1.9318966   -1.7870507 0.0092395379   -1.7778111 
 1086000     1.595955   -1.7889957  0.007632855   -1.7813628 
 1087000    2.5482265   -1.7911721  0.012187213   -1.7789849 
 1088000    2.0488933   -1.7887842 0.0097990891   -1.7789852 
 1089000    1.6892811   -1.7880964 0.0080791989   -1.7800172 
 1090000    2.5397249   -1.7866591  0.012146553   -1.7745125 
 1091000    2.3362374    -1.783935  0.011173348   -1.7727617 
 1092000    2.9779106   -1.7907103  0.014242231   -1.7764681 
 1093000    2.6889256   -1.7881419  0.012860124   -1.7752818 
 1094000    2.8315921   -1.7865532  0.013542444   -1.7730108 
 1095000    2.2031941   -1.7860347  0.010537052   -1.7754976 
 1096000    2.2411543   -1.7858408  0.010718601   -1.7751222 
 1097000    1.7032793   -1.7890095 0.0081461466   -1.7808634 
 1098000    2.0184707   -1.7908517  0.009653589   -1.7811981 
 1099000    2.5082203   -1.7890798  0.011995878   -1.7770839 
 1100000    1.6829313   -1.7819443 0.0080488298   -1.7738954 
 1101000    2.0281121   -1.7789618 0.0096997003   -1.7692621 
 1102000    2.2286386   -1.7878367  0.010658744    -1.777178 
 1103000    2.8822032   -1.7863756  0.013784498   -1.7725911 
 1104000    2.5644207   -1.7839516  0.012264664   -1.7716869 
 1105000    3.4906925   -1.7794594  0.016694675   -1.7627647 
 1106000    2.2681284   -1.7848157  0.010847608   -1.7739681 
 1107000    2.7794198   -1.7887919  0.013292924    -1.775499 
 1108000    2.0302786   -1.7907777 0.0097100617   -1.7810676 
 1109000    2.2202923   -1.7891005  0.010618826   -1.7784816 
 1110000    1.6684885   -1.7867303 0.0079797556   -1.7787506 
 1111000    1.6597227   -1.7866847  0.007937832   -1.7787469 
 1112000    1.8640801   -1.7879313 0.0089151967   -1.7790161 
 1113000    1.8496078   -1.7887572 0.0088459811   -1.7799112 
 1114000    2.3376954    -1.788351  0.011180321   -1.7771707 
 1115000    2.8724705   -1.7880894   0.01373795   -1.7743514 
 1116000    2.4557636    -1.788006  0.011744997    -1.776261 
 1117000     2.532865   -1.7900952  0.012113744   -1.7779814 
 1118000    1.7430236   -1.7908525  0.008336229   -1.7825163 
 1119000    2.2224862   -1.7870232  0.010629319   -1.7763939 
 1120000     1.907338   -1.7873632  0.009122083   -1.7782411 
 1121000    2.0081699   -1.7877523 0.0096043242    -1.778148 
 1122000    1.7439034     -1.78758 0.0083404365   -1.7792396 
 1123000    1.7259525   -1.7866866 0.0082545841   -1.7784321 
 1124000    1.7411811   -1.7899326 0.0083274167   -1.7816051 
 1125000     1.987205   -1.7875951  0.009504057    -1.778091 
 1126000    1.9920083   -1.7893706 0.0095270295   -1.7798436 
 1127000    1.5212391   -1.7869545 0.0072755168    -1.779679 
 1128000    2.2875568   -1.7869164  0.010940527   -1.7759759 
 1129000    1.7782286   -1.7898966 0.0085046014    -1.781392 
 1130000    2.3343562   -1.7887189  0.011164351   -1.7775545 
 1131000    1.9043139   -1.7892022 0.0091076199   -1.7800946 
 1132000    2.0606103   -1.7863389  0.009855127   -1.7764838 
 1133000     1.869779   -1.7898626 0.0089424527   -1.7809201 
 1134000    2.0997359   -1.7889133   0.01004225   -1.7788711 
 1135000    2.0743215   -1.7891885 0.0099207025   -1.7792678 
 1136000    1.8881374   -1.7899152 0.0090302536   -1.7808849 
 1137000    2.2105259   -1.7873899  0.010572117   -1.7768177 
 1138000    1.9237447   -1.7884484 0.0092005503   -1.7792478 
 1139000    1.8699776   -1.7886614 0.0089434024    -1.779718 
 1140000     1.927346   -1.7862832 0.0092177741   -1.7770655 
 1141000    1.5576612   -1.7877202 0.0074497097   -1.7802705 
 1142000    1.8574499   -1.7854002  0.008883487   -1.7765168 
 1143000    2.0502411   -1.7883485 0.0098055352    -1.778543 
 1144000    1.3921641   -1.7886764 0.0066581995   -1.7820182 
 1145000    1.7356758   -1.7904191 0.0083010873    -1.782118 
 1146000    1.5731751   -1.7866948 0.0075239071   -1.7791709 
 1147000    1.7459187   -1.7883465 0.0083500752   -1.7799964 
 1148000    1.8964977   -1.7891577 0.0090702378   -1.7800875 
 1149000    1.7955817   -1.7899122 0.0085875948   -1.7813246 
 1150000    1.9405216   -1.7884078 0.0092807879    -1.779127 
 1151000      2.37312    -1.790962  0.011349744   -1.7796123 
 1152000    2.1645726   -1.7864581   0.01035234   -1.7761058 
 1153000    2.1527791   -1.7906728  0.010295936   -1.7803768 
 1154000    2.2468168   -1.7879086  0.010745683   -1.7771629 
 1155000     1.878555   -1.7881238 0.0089844247   -1.7791394 
 1156000    2.0530029   -1.7892711 0.0098187438   -1.7794523 
 1157000    1.8050986   -1.7893828 0.0086331101   -1.7807497 
 1158000     2.497796   -1.7875264  0.011946022   -1.7755804 
 1159000    2.0187568   -1.7908349 0.0096549573     -1.78118 
 1160000    2.0720798   -1.7872063 0.0099099815   -1.7772964 
 1161000     1.855143   -1.7897107 0.0088724539   -1.7808382 
 1162000    1.8328635    -1.786501 0.0087658996   -1.7777351 
 1163000    2.1376949   -1.7877944  0.010223794   -1.7775706 
 1164000    1.7156023   -1.7869662 0.0082050829   -1.7787611 
 1165000    2.0986955   -1.7911216  0.010037274   -1.7810843 
 1166000    1.5530136   -1.7862109 0.0074274822   -1.7787834 
 1167000    1.9519505    -1.784298  0.009335448   -1.7749626 
 1168000    2.5851095    -1.785343   0.01236361   -1.7729794 
 1169000    2.2808434   -1.7852371   0.01090842   -1.7743287 
 1170000    3.1091692   -1.7850532  0.014869992   -1.7701832 
 1171000    3.0006536    -1.784453  0.014351002    -1.770102 
 1172000    2.4152562   -1.7807551  0.011551266   -1.7692038 
 1173000    2.4363862   -1.7833538  0.011652322   -1.7717015 
 1174000    2.7852972   -1.7827303  0.013321033   -1.7694093 
 1175000    2.0456403    -1.786178 0.0097835311   -1.7763944 
 1176000    3.1404614   -1.7827104   0.01501965   -1.7676907 
 1177000    2.6974606   -1.7856797  0.012900944   -1.7727788 
 1178000    2.3429516   -1.7881962   0.01120546   -1.7769907 
 1179000     2.397606   -1.7860626  0.011466851   -1.7745957 
 1180000    2.1872426   -1.7860128  0.010460762    -1.775552 
 1181000    3.4544333   -1.7865621   0.01652126   -1.7700408 
 1182000     3.032628   -1.7870501  0.014503924   -1.7725462 
 1183000    2.0038952   -1.7894228   0.00958388   -1.7798389 
 1184000    2.6183711   -1.7893442  0.012522688   -1.7768215 
 1185000    2.0870344   -1.7877763 0.0099815037   -1.7777948 
 1186000    2.3326617   -1.7866031  0.011156247   -1.7754469 
 1187000    2.1263901   -1.7878052  0.010169727   -1.7776355 
 1188000    1.5269254   -1.7882323 0.0073027123   -1.7809295 
 1189000    2.3342601   -1.7881961  0.011163892   -1.7770322 
 1190000    1.9040918   -1.7894944 0.0091065579   -1.7803878 
 1191000    2.0197224   -1.7905039 0.0096595758   -1.7808443 
 1192000    1.7757393   -1.7898904 0.0084926961   -1.7813977 
 1193000    2.0077166    -1.790673 0.0096021565   -1.7810709 
 1194000    2.0033099   -1.7889007 0.0095810806   -1.7793196 
 1195000    1.9604362   -1.7894378 0.0093760318   -1.7800617 
 1196000    1.6660093   -1.7886086 0.0079678983   -1.7806407 
 1197000    2.2696359   -1.7883629  0.010854818   -1.7775081 
 1198000    1.8583171   -1.7895294 0.0088876347   -1.7806418 
 1199000    2.2610153   -1.7884877  0.010813589   -1.7776741 
 1200000    1.9162749   -1.7894214 0.0091648248   -1.7802565 
 1201000    1.6467985   -1.7909848 0.0078760203   -1.7831088 
 1202000    2.0854075   -1.7906095 0.0099737226   -1.7806358 
 1203000    1.7736702   -1.7888545 0.0084828001   -1.7803717 
 1204000    1.9138819   -1.7888843 0.0091533802    -1.779731 
 1205000    1.4944347   -1.7886337 0.0071473211   -1.7814864 
 1206000    2.1763373   -1.7882335  0.010408606   -1.7778249 
 1207000    1.8957609   -1.7894567 0.0090667143     -1.78039 
 1208000    1.7087244   -1.7893294 0.0081721887   -1.7811572 
 1209000    2.4355211   -1.7896505  0.011648185   -1.7780023 
 1210000    1.7458374    -1.789576 0.0083496862   -1.7812263 
 1211000     1.871355   -1.7875405 0.0089499898   -1.7785905 
 1212000    2.2318913   -1.7894399    0.0106743   -1.7787656 
 1213000    2.4925501   -1.7915891  0.011920934   -1.7796682 
 1214000    2.2330716   -1.7900004  0.010679945   -1.7793205 
 1215000    2.0522105   -1.7898667 0.0098149539   -1.7800518 
 1216000    1.5717382   -1.7875859 0.0075170351   -1.7800689 
 1217000    1.9596515   -1.7886347 0.0093722789   -1.7792625 
 1218000    2.1812146   -1.7866345  0.010431932   -1.7762026 
 1219000    1.5728218   -1.7899549 0.0075222175   -1.7824327 
 1220000    1.7698712   -1.7925225 0.0084646309   -1.7840579 
 1221000    2.5849031   -1.7862393  0.012362623   -1.7738767 
 1222000    1.3843248   -1.7854024  0.006620707   -1.7787817 
 1223000    2.1042504   -1.7864395  0.010063841   -1.7763757 
 1224000    2.5323886   -1.7877155  0.012111466   -1.7756041 
 1225000    2.6537431   -1.7852698  0.012691859   -1.7725779 
 1226000    2.6048015   -1.7855326   0.01245779   -1.7730748 
 1227000    2.5113533   -1.7837058  0.012010862    -1.771695 
 1228000    2.3559668    -1.781881  0.011267707   -1.7706133 
 1229000    1.9698838   -1.7851126 0.0094212162   -1.7756914 
 1230000    2.1130622   -1.7862342  0.010105985   -1.7761282 
 1231000    2.1605361   -1.7851573  0.010333035   -1.7748242 
 1232000    2.5348703   -1.7837099  0.012123335   -1.7715866 
 1233000    2.2346205   -1.7809088  0.010687353   -1.7702215 
 1234000    2.5626688   -1.7872505  0.012256285   -1.7749942 
 1235000    1.7813265   -1.7897513 0.0085194174   -1.7812319 
 1236000    2.1416424   -1.7901979  0.010242673   -1.7799553 
 1237000    1.6465388   -1.7894416 0.0078747781   -1.7815668 
 1238000    2.0885011   -1.7864343 0.0099885185   -1.7764458 
 1239000    2.1289378   -1.7878714  0.010181912   -1.7776895 
 1240000    1.7917147   -1.7914737 0.0085691001   -1.7829046 
 1241000    1.9506112   -1.7908852 0.0093290426   -1.7815562 
 1242000    1.9383358   -1.7878487 0.0092703337   -1.7785784 
 1243000    2.0622474   -1.7860264 0.0098629568   -1.7761635 
 1244000    2.7902395   -1.7851771   0.01334467   -1.7718325 
 1245000    1.9083902   -1.7869501 0.0091271153    -1.777823 
 1246000    3.7499311   -1.7851536  0.017934515   -1.7672191 
 1247000    2.1899433   -1.7867628  0.010473678   -1.7762891 
 1248000     2.008063   -1.7826836 0.0096038133   -1.7730798 
 1249000    2.7163178   -1.7859594  0.012991131   -1.7729682 
 1250000    2.9166397   -1.7842754  0.013949195   -1.7703262 
 1251000    2.6743913   -1.7769964  0.012790612   -1.7642058 
 1252000    4.7939763   -1.7773895  0.022927792   -1.7544617 
 1253000     2.975543   -1.7868754  0.014230908   -1.7726445 
 1254000    2.6267006   -1.7818388  0.012562525   -1.7692763 
 1255000    1.9454789   -1.7888624 0.0093044969   -1.7795579 
 1256000    2.2773001   -1.7838997  0.010891473   -1.7730082 
 1257000    2.6673934   -1.7820941  0.012757143    -1.769337 
 1258000    2.5679362   -1.7821368  0.012281477   -1.7698553 
 1259000    2.3146251   -1.7872927  0.011069985   -1.7762227 
 1260000    1.9016927   -1.7872841 0.0090950838    -1.778189 
 1261000     2.266887   -1.7919728  0.010841671   -1.7811311 
 1262000    1.8217026   -1.7843119 0.0087125209   -1.7755993 
 1263000    2.5376253   -1.7873767  0.012136511   -1.7752402 
 1264000    1.9522054   -1.7906294 0.0093366671   -1.7812927 
[...]
 4697000    12.720334   -1.7036855  0.060836592   -1.6428489 
 4698000     17.14582   -1.6995876  0.082002033   -1.6175856 
 4699000    13.501953   -1.6806203  0.064574785   -1.6160455 
 4700000    16.282085   -1.7240828  0.077871113   -1.6462117 
 4701000    11.963888   -1.7475588  0.057218796     -1.69034 
 4702000    13.664477   -1.7148253  0.065352072   -1.6494732 
 4703000    17.605893   -1.7095285  0.084202393   -1.6253261 
 4704000    14.650207   -1.7109235  0.070066451   -1.6408571 
 4705000    10.707102   -1.7366011  0.051208057   -1.6853931 
 4706000    10.453895   -1.7430054  0.049997064   -1.6930083 
 4707000    14.714318   -1.7224237  0.070373072   -1.6520506 
 4708000    12.297708   -1.7390048   0.05881533   -1.6801894 
 4709000    11.539172   -1.7482111  0.055187536   -1.6930236 
 4710000    8.7438085   -1.7428053   0.04181836    -1.700987 
 4711000    10.183518   -1.7544074   0.04870395   -1.7057034 
 4712000    7.7341557   -1.7431336  0.036989569   -1.7061441 
 4713000    7.8087833   -1.7531039  0.037346485   -1.7157574 
 4714000    9.9515123   -1.7475216  0.047594355   -1.6999273 
 4715000    9.0317943    -1.745394  0.043195689   -1.7021983 
 4716000    10.507214   -1.7418545  0.050252068   -1.6916025 
 4717000    9.5980278   -1.7534515  0.045903771   -1.7075478 
 4718000     8.841838   -1.7586414  0.042287199   -1.7163542 
 4719000     8.751313    -1.744825  0.041854251   -1.7029708 
 4720000     7.734366   -1.7514162  0.036990575   -1.7144256 
 4721000    7.4921885   -1.7510899  0.035832331   -1.7152575 
 4722000    7.7115438   -1.7547418  0.036881425   -1.7178604 
 4723000    9.1442945   -1.7406375  0.043733735   -1.6969038 
 4724000    11.006139   -1.7592734   0.05263824   -1.7066351 
 4725000    7.0396022   -1.7596201   0.03366778   -1.7259524 
 4726000    7.5845986   -1.7697515  0.036274294   -1.7334772 
 4727000    7.2479809   -1.7619299  0.034664377   -1.7272655 
 4728000    7.3934393   -1.7638459   0.03536005   -1.7284859 
 4729000     6.579508   -1.7603747  0.031467322   -1.7289074 
 4730000    7.6454179   -1.7547256   0.03656517   -1.7181604 
 4731000    7.3264125   -1.7666573  0.035039486   -1.7316178 
 4732000    6.8702253   -1.7663562  0.032857714   -1.7334985 
 4733000    6.8984894   -1.7625397   0.03299289   -1.7295468 
 4734000    5.4324088   -1.7596054  0.025981176   -1.7336243 
 4735000    6.3240375   -1.7665976  0.030245502   -1.7363521 
 4736000    5.8497137   -1.7637883  0.027976989   -1.7358113 
 4737000    8.0451266   -1.7624626  0.038476827   -1.7239858 
 4738000    7.7507584    -1.761151  0.037068974    -1.724082 
 4739000    6.4133025   -1.7649147  0.030672423   -1.7342423 
 4740000    8.0011479   -1.7601937  0.038266493   -1.7219272 
 4741000    5.8105007   -1.7604889  0.027789448   -1.7326995 
 4742000    7.3814912   -1.7645326  0.035302907   -1.7292296 
 4743000    5.9270132   -1.7744223  0.028346684   -1.7460756 
 4744000    4.8060727   -1.7744058  0.022985645   -1.7514201 
 4745000    4.8434396   -1.7644969  0.023164357   -1.7413325 
 4746000    4.7178563   -1.7703632  0.022563739   -1.7477995 
 4747000    4.9452775   -1.7690824  0.023651409    -1.745431 
 4748000    4.1633506   -1.7713076  0.019911746   -1.7513959 
 4749000    4.3151835   -1.7712131  0.020637906   -1.7505751 
 4750000     5.156386   -1.7636446  0.024661062   -1.7389835 
 4751000    5.0553642   -1.7690928  0.024177913   -1.7449149 
 4752000    4.9748699   -1.7740813  0.023792939   -1.7502883 
 4753000    4.6048288   -1.7735364  0.022023171   -1.7515132 
 4754000    4.9524625   -1.7691892  0.023685773   -1.7455034 
 4755000    6.2771009   -1.7726312  0.030021022   -1.7426102 
 4756000    4.9488182   -1.7723965  0.023668343   -1.7487282 
 4757000    4.4470609   -1.7699898  0.021268626   -1.7487212 
 4758000    4.4920313   -1.7761543  0.021483703   -1.7546706 
 4759000    5.1789469   -1.7647914  0.024768963   -1.7400224 
 4760000    5.6225826   -1.7689013  0.026890706   -1.7420106 
 4761000    7.7368452   -1.7660125  0.037002432   -1.7290101 
 4762000    7.6519177   -1.7610735  0.036596256   -1.7244773 
 4763000    6.7412759   -1.7653645  0.032240997   -1.7331235 
 4764000    5.2630262   -1.7661067  0.025171083   -1.7409357 
 4765000    6.5294122    -1.762099  0.031227732   -1.7308712 
 4766000    5.9856843   -1.7583384  0.028627285   -1.7297111 
 4767000    6.0383842   -1.7574241  0.028879329   -1.7285448 
 4768000    8.3822258   -1.7670229  0.040089046   -1.7269338 
 4769000    7.5793446   -1.7671924  0.036249166   -1.7309432 
 4770000     7.159463   -1.7622533   0.03424103   -1.7280123 
 4771000    7.3423194    -1.751943  0.035115563   -1.7168274 
 4772000    6.7612995   -1.7688792  0.032336763   -1.7365424 
 4773000    5.4835049   -1.7792375  0.026225549    -1.753012 
 4774000    5.1567874   -1.7723012  0.024662982   -1.7476382 
 4775000    4.9374967   -1.7631558  0.023614197   -1.7395416 
 4776000      4.23851   -1.7676055  0.020271206   -1.7473343 
 4777000    5.4147793   -1.7790826  0.025896861   -1.7531857 
 4778000    4.0115927   -1.7798101  0.019185945   -1.7606242 
 4779000    2.7646131   -1.7793997  0.013222109   -1.7661776 
 4780000     3.206599   -1.7771862  0.015335962   -1.7618502 
 4781000    4.0348387   -1.7760444  0.019297122   -1.7567472 
 4782000    3.8597065   -1.7769838   0.01845953   -1.7585242 
 4783000    3.6440988   -1.7773802  0.017428359   -1.7599518 
 4784000    3.7686308   -1.7817755  0.018023949   -1.7637515 
 4785000    4.1834656   -1.7772313  0.020007949   -1.7572233 
 4786000    3.5117954   -1.7792403  0.016795602   -1.7624447 
 4787000    3.8899513   -1.7745367   0.01860418   -1.7559326 
 4788000    6.9227805   -1.7735877  0.033109066   -1.7404786 
 4789000    5.0819778    -1.768182  0.024305196   -1.7438768 
 4790000    4.4376702   -1.7731862  0.021223714   -1.7519625 
 4791000    4.7466555   -1.7671164  0.022701475   -1.7444149 
 4792000    4.4394087   -1.7747421  0.021232029   -1.7535101 
 4793000    5.2775387   -1.7703075  0.025240491    -1.745067 
 4794000    5.3736925   -1.7746483  0.025700358   -1.7489479 
 4795000    4.5895971   -1.7679354  0.021950323    -1.745985 
 4796000    5.0781867   -1.7766957  0.024287064   -1.7524087 
 4797000    5.3856829   -1.7645838  0.025757703   -1.7388261 
 4798000    4.5568692   -1.7740218  0.021793798   -1.7522281 
 4799000    4.7113634   -1.7591562  0.022532686   -1.7366235 
 4800000    6.0962973   -1.7747591  0.029156306   -1.7456027 
 4801000    5.3365176   -1.7671339  0.025522564   -1.7416113 
 4802000    4.4631217   -1.7749047  0.021345439   -1.7535592 
 4803000    3.8186504   -1.7636095  0.018263174   -1.7453463 
 4804000    4.2583849    -1.772339   0.02036626   -1.7519727 
 4805000    5.5443066   -1.7662549  0.026516341   -1.7397386 
 4806000    6.2054983   -1.7618783  0.029678574   -1.7321998 
 4807000    6.6895982   -1.7590477  0.031993842   -1.7270538 
 4808000    6.0651491   -1.7626596  0.029007336   -1.7336522 
 4809000    6.1152847   -1.7675794  0.029247116   -1.7383323 
 4810000    4.7048684   -1.7692651  0.022501623   -1.7467635 
 4811000    4.1335931   -1.7745338  0.019769427   -1.7547644 
 4812000     4.133564   -1.7809825  0.019769288   -1.7612132 
 4813000    3.3310341   -1.7757857  0.015931088   -1.7598546 
 4814000    4.0066638   -1.7784967  0.019162372   -1.7593343 
 4815000    3.6161707   -1.7767569   0.01729479   -1.7594621 
 4816000    3.7204474   -1.7795321  0.017793506   -1.7617386 
 4817000    3.7810736   -1.7753029  0.018083459   -1.7572194 
 4818000    3.5433224   -1.7819418  0.016946384   -1.7649955 
 4819000    3.6609488    -1.780672  0.017508946    -1.763163 
 4820000    4.3743235   -1.7796852   0.02092075   -1.7587645 
 4821000    3.5955566   -1.7728285    0.0171962   -1.7556323 
 4822000    4.7382701   -1.7809678  0.022661371   -1.7583064 
 4823000    4.0200366   -1.7833457  0.019226329   -1.7641194 
 4824000    2.0370948   -1.7864504 0.0097426611   -1.7767077 
 4825000    2.4397587   -1.7863616  0.011668452   -1.7746931 
 4826000    2.2305947   -1.7859674  0.010668099   -1.7752993 
 4827000    1.8470225   -1.7865147 0.0088336166   -1.7776811 
 4828000    1.9873605    -1.790926 0.0095048009   -1.7814212 
 4829000    2.0168766   -1.7887283 0.0096459649   -1.7790823 
 4830000    1.5550085   -1.7891372 0.0074370232   -1.7817001 
 4831000    1.6103716   -1.7837859  0.007701804   -1.7760841 
 4832000    2.0505467     -1.78835 0.0098069965    -1.778543 
 4833000    1.6790085   -1.7851482 0.0080300686   -1.7771181 
 4834000    2.9268813   -1.7859772  0.013998177    -1.771979 
 4835000    2.3050195   -1.7828947  0.011024045   -1.7718707 
 4836000    2.4402376   -1.7848994  0.011670742   -1.7732286 
 4837000    3.9808861   -1.7758618  0.019039087   -1.7568227 
 4838000    2.9168048   -1.7818049  0.013949985   -1.7678549 
 4839000    4.5066987   -1.7796159  0.021553852   -1.7580621 
 4840000    3.4216844   -1.7831236  0.016364634   -1.7667589 
 4841000    3.1146212   -1.7716721  0.014896066    -1.756776 
 4842000    6.1153964    -1.775473   0.02924765   -1.7462254 
 4843000    4.9816832   -1.7677041  0.023825524   -1.7438786 
 4844000    4.3672622   -1.7796501  0.020886979   -1.7587631 
 4845000    3.4102667   -1.7739235  0.016310028   -1.7576134 
 4846000    3.3148228   -1.7777123  0.015853556   -1.7618588 
 4847000    3.5745415   -1.7819011  0.017095693   -1.7648054 
 4848000    3.3107315   -1.7757521  0.015833988   -1.7599181 
 4849000    4.0849517   -1.7814106  0.019536794   -1.7618738 
 4850000    2.0349981   -1.7858704 0.0097326333   -1.7761378 
 4851000    3.2226065   -1.7827987  0.015412519   -1.7673862 
 4852000    2.9617739    -1.786196  0.014165055   -1.7720309 
 4853000    2.4558137   -1.7834791  0.011745237   -1.7717339 
 4854000    2.7272631   -1.7851171  0.013043478   -1.7720737 
 4855000    3.0859867   -1.7848671  0.014759118    -1.770108 
 4856000    3.1201739   -1.7874648  0.014922623   -1.7725422 
 4857000    2.9070011   -1.7859625  0.013903097   -1.7720594 
 4858000    2.3579198    -1.783326  0.011277047   -1.7720489 
 4859000    2.4134798   -1.7841514   0.01154277   -1.7726086 
 4860000    2.6599756   -1.7834521  0.012721667   -1.7707305 
 4861000    2.4972261   -1.7841659  0.011943297   -1.7722227 
 4862000    2.5456578   -1.7894959  0.012174928    -1.777321 
 4863000    2.7174439   -1.7854578  0.012996516   -1.7724613 
 4864000    2.2755941   -1.7848207  0.010883314   -1.7739374 
 4865000    3.0744713   -1.7843872  0.014704045   -1.7696832 
 4866000    2.8205758   -1.7750527  0.013489758    -1.761563 
 4867000    3.2850439   -1.7785366  0.015711134   -1.7628255 
 4868000    4.3412235   -1.7794505  0.020762446   -1.7586881 
 4869000    3.6117671   -1.7742168  0.017273729    -1.756943 
 4870000    4.7046956   -1.7789454  0.022500797   -1.7564446 
 4871000    3.6498577   -1.7801398  0.017455902   -1.7626839 
 4872000    3.6424396   -1.7813609  0.017420424   -1.7639405 
 4873000    4.2659968   -1.7821061  0.020402664   -1.7617035 
 4874000    3.8861008   -1.7728827  0.018585764   -1.7542969 
 4875000    2.9375357   -1.7813706  0.014049133   -1.7673215 
 4876000    3.5235477   -1.7814023  0.016851809   -1.7645505 
 4877000    4.2398907   -1.7799494  0.020277809   -1.7596715 
 4878000    2.8525404   -1.7836325  0.013642632   -1.7699899 
 4879000    2.1413519   -1.7868524  0.010241284   -1.7766111 
 4880000    2.2541632   -1.7842001  0.010780818   -1.7734193 
 4881000    2.6158998    -1.787491  0.012510869   -1.7749802 
 4882000    3.0674579    -1.785887  0.014670502   -1.7712165 
 4883000    2.7647554   -1.7812056  0.013222789   -1.7679828 
 4884000    3.1769953   -1.7798586  0.015194378   -1.7646642 
 4885000    3.1314145   -1.7858838  0.014976383   -1.7709075 
 4886000    2.1597472   -1.7854141  0.010329262   -1.7750848 
 4887000       2.4575   -1.7843789  0.011753302   -1.7726256 
 4888000    2.5863255   -1.7832443  0.012369426   -1.7708748 
 4889000    2.7662675     -1.78525  0.013230021   -1.7720199 
 4890000    2.3299754   -1.7872206    0.0111434   -1.7760772 
 4891000    2.2364531   -1.7865057  0.010696117   -1.7758096 
 4892000    2.7543284   -1.7834612  0.013172921   -1.7702883 
 4893000    3.7953259    -1.780001  0.018151622   -1.7618494 
 4894000    4.2409171    -1.778645  0.020282718   -1.7583623 
 4895000    3.4061721   -1.7806907  0.016290445   -1.7644002 
 4896000    4.0756142   -1.7820103  0.019492136   -1.7625182 
 4897000    2.3868068   -1.7828257  0.011415203   -1.7714105 
 4898000    2.9566827   -1.7846784  0.014140706   -1.7705377 
 4899000    2.2871855     -1.78424  0.010938751   -1.7733012 
 4900000    2.4525132   -1.7875156  0.011729452   -1.7757862 
 4901000    2.0927417   -1.7897693  0.010008799   -1.7797605 
 4902000    2.0914608   -1.7890214  0.010002673   -1.7790187 
 4903000     2.108236    -1.786555  0.010082903   -1.7764721 
 4904000    1.7963039   -1.7916286 0.0085910484   -1.7830376 
 4905000    1.6304185   -1.7867926 0.0077976807   -1.7789949 
 4906000    2.4561379   -1.7884052  0.011746787   -1.7766585 
 4907000    2.3481441   -1.7881125  0.011230293   -1.7768822 
 4908000    2.2895943   -1.7905027  0.010950272   -1.7795524 
 4909000    2.2777697    -1.789706  0.010893719   -1.7788123 
 4910000    2.0954555   -1.7902914  0.010021779   -1.7802696 
 4911000    1.6655319   -1.7888332 0.0079656149   -1.7808676 
 4912000    1.8993057   -1.7888283 0.0090836678   -1.7797447 
 4913000     2.142707   -1.7866032  0.010247765   -1.7763554 
 4914000    1.7993299    -1.789441 0.0086055208   -1.7808354 
 4915000    2.2191522   -1.7894824  0.010613373    -1.778869 
 4916000    2.1804089   -1.7886299  0.010428079   -1.7782018 
 4917000    2.7773634   -1.7805439  0.013283088   -1.7672608 
 4918000    2.6053658   -1.7868371  0.012460489   -1.7743766 
 4919000    2.5607586   -1.7838814  0.012247149   -1.7716342 
 4920000    2.0819686   -1.7811157 0.0099572757   -1.7711584 
 4921000    2.8482933    -1.787519   0.01362232   -1.7738966 
 4922000     2.468387   -1.7849664   0.01180537    -1.773161 
 4923000    2.2374064   -1.7813601  0.010700677   -1.7706594 
 4924000    3.2431498   -1.7863609   0.01551077   -1.7708501 
 4925000    2.7931464    -1.785508  0.013358573   -1.7721495 
 4926000    2.2981083   -1.7856133  0.010990991   -1.7746223 
 4927000    2.5470739    -1.786108    0.0121817   -1.7739263 
 4928000    2.6131257   -1.7842289  0.012497601   -1.7717313 
 4929000    3.0227204   -1.7820674  0.014456539   -1.7676108 
 4930000    2.4015391   -1.7880317  0.011485662    -1.776546 
 4931000    2.9586449   -1.7866401   0.01415009     -1.77249 
 4932000    2.3378519   -1.7857165   0.01118107   -1.7745355 
 4933000    2.4379971   -1.7856462  0.011660027   -1.7739862 
 4934000    2.3024902   -1.7805334  0.011011948   -1.7695215 
 4935000    2.5867514   -1.7832837  0.012371463   -1.7709122 
 4936000     2.221246    -1.783991  0.010623387   -1.7733676 
 4937000    2.9735027   -1.7836774  0.014221149   -1.7694563 
 4938000    2.5957872   -1.7827564  0.012414678   -1.7703417 
 4939000    2.7417377   -1.7850918  0.013112704   -1.7719791 
 4940000    2.5821306   -1.7809841  0.012349363   -1.7686348 
 4941000    1.9514665   -1.7853816 0.0093331333   -1.7760484 
 4942000    2.4065268   -1.7883248  0.011509516   -1.7768153 
 4943000    1.6730328   -1.7822646  0.008001489   -1.7742631 
 4944000     2.810459   -1.7839811  0.013441372   -1.7705397 
 4945000    2.9599137   -1.7813732  0.014156159   -1.7672171 
 4946000    2.6117538   -1.7780919   0.01249104   -1.7656008 
 4947000    1.8851738    -1.786718 0.0090160798   -1.7777019 
 4948000    2.6837765   -1.7810757  0.012835498   -1.7682402 
 4949000    2.1219882   -1.7869024  0.010148674   -1.7767537 
 4950000    2.3584506    -1.782107  0.011279586   -1.7708274 
 4951000    2.6600506   -1.7823521  0.012722025     -1.76963 
 4952000    2.3606564   -1.7873489  0.011290135   -1.7760588 
 4953000    3.0316699   -1.7839855  0.014499341   -1.7694862 
 4954000    2.4683203   -1.7861006  0.011805051   -1.7742956 
 4955000    2.6638239   -1.7835301  0.012740072     -1.77079 
 4956000    2.6826557   -1.7806956  0.012830137   -1.7678655 
 4957000    2.4147805   -1.7838765   0.01154899   -1.7723275 
 4958000    2.4069638   -1.7832408  0.011511606   -1.7717292 
 4959000    2.5212471   -1.7878271  0.012058181   -1.7757689 
 4960000    2.6496035    -1.782273  0.012672061    -1.769601 
 4961000    2.7572779   -1.7855958  0.013187027   -1.7724087 
 4962000    3.1668962   -1.7832491  0.015146078    -1.768103 
 4963000    2.5107684   -1.7837503  0.012008064   -1.7717422 
 4964000    2.8145066    -1.790901  0.013460731   -1.7774403 
 4965000    2.6070038   -1.7852753  0.012468323   -1.7728069 
 4966000    2.3521825   -1.7865163  0.011249608   -1.7752667 
 4967000    2.7363485    -1.785585   0.01308693    -1.772498 
 4968000    2.2257142   -1.7841707  0.010644757   -1.7735259 
 4969000    3.0824737   -1.7864382  0.014742317   -1.7716958 
 4970000    2.0968307   -1.7816663  0.010028356   -1.7716379 
 4971000     2.750613   -1.7841413  0.013155152   -1.7709861 
 4972000    2.7410259   -1.7800223    0.0131093    -1.766913 
 4973000    4.1577859   -1.7765876  0.019885132   -1.7567025 
 4974000    3.5606609   -1.7794333  0.017029307    -1.762404 
 4975000    3.3482124   -1.7766164  0.016013246   -1.7606032 
 4976000    4.2367285   -1.7790715  0.020262685   -1.7588088 
 4977000    1.9490484   -1.7834677 0.0093215685   -1.7741461 
 4978000     2.548681    -1.787236  0.012189387   -1.7750466 
 4979000    2.3096533    -1.782426  0.011046206   -1.7713798 
 4980000    2.4187859   -1.7831998  0.011568147   -1.7716317 
 4981000    2.8670066   -1.7825539  0.013711818   -1.7688421 
 4982000     2.505315   -1.7839374  0.011981983   -1.7719554 
 4983000    2.4795004   -1.7868062  0.011858521   -1.7749477 
 4984000    3.1862226   -1.7870794  0.015238509   -1.7718409 
 4985000    2.5232695   -1.7850113  0.012067853   -1.7729435 
 4986000    2.5987259   -1.7866706  0.012428732   -1.7742419 
 4987000    2.4887651    -1.781656  0.011902831   -1.7697532 
 4988000    1.5699415   -1.7874806 0.0075084419   -1.7799721 
 4989000    1.8740995   -1.7870287 0.0089631159   -1.7780656 
 4990000    1.8629383    -1.788959 0.0089097359   -1.7800492 
 4991000     2.803272   -1.7868249     0.013407   -1.7734179 
 4992000    2.7506844   -1.7848994  0.013155493   -1.7717439 
 4993000    2.8741925   -1.7823625  0.013746186   -1.7686163 
 4994000    2.6091403   -1.7842702   0.01247854   -1.7717917 
 4995000    2.5764165    -1.783489  0.012322035    -1.771167 
 4996000    2.7499034   -1.7856497  0.013151758   -1.7724979 
 4997000    2.4148355   -1.7861231  0.011549254   -1.7745739 
 4998000    2.1050538   -1.7846868  0.010067684   -1.7746191 
 4999000     2.978697   -1.7839145  0.014245992   -1.7696685 
 5000000    2.5933992   -1.7842221  0.012403257   -1.7718188 
Loop time of 1276.16 on 1 procs for 5000000 steps with 38 atoms

Performance: 338.516 ns/day, 0.071 hours/ns, 3918.010 timesteps/s
97.7% CPU use with 1 MPI tasks x no OpenMP threads

MPI task timing breakdown:
Section |  min time  |  avg time  |  max time  |%varavg| %total
---------------------------------------------------------------
Pair    | 1209.4     | 1209.4     | 1209.4     |   0.0 | 94.77
Neigh   | 2.1458e-05 | 2.1458e-05 | 2.1458e-05 |   0.0 |  0.00
Comm    | 1.1407     | 1.1407     | 1.1407     |   0.0 |  0.09
Output  | 0.21529    | 0.21529    | 0.21529    |   0.0 |  0.02
Modify  | 17.148     | 17.148     | 17.148     |   0.0 |  1.34
Other   |            | 48.27      |            |       |  3.78

Nlocal:        38.0000 ave          38 max          38 min
Histogram: 1 0 0 0 0 0 0 0 0 0
Nghost:        0.00000 ave           0 max           0 min
Histogram: 1 0 0 0 0 0 0 0 0 0
Neighs:        0.00000 ave           0 max           0 min
Histogram: 1 0 0 0 0 0 0 0 0 0

Total # of neighbors = 0
Ave neighs/atom = 0.0000000
Neighbor list builds = 82
Dangerous builds = 0
neighbor            0.3        bin


Total wall time: 0:21:16
