LAMMPS (29 Oct 2020)
Processor partition = 6
Reading data file ...
  orthogonal box = (-50.000000 -50.000000 -50.000000) to (50.000000 50.000000 50.000000)
  1 by 1 by 1 MPI processor grid
  reading atoms ...
  38 atoms
  read_data CPU = 0.011 seconds

--------------------------------------------------------------------------
- Using acceleration for lj/cut:
-  with 1 proc(s) per device.
--------------------------------------------------------------------------
Device 0: Tesla P100-PCIE-16GB, 56 CUs, 15/16 GB, 1.3 GHZ (Mixed Precision)
--------------------------------------------------------------------------

Initializing Device and compiling on process 0...Done.
Initializing Device 0 on core 0...Done.

Setting up Verlet run ...
  Unit style    : metal
  Current step  : 0
  Time step     : 0.001
Per MPI rank memory allocation (min/avg/max) = 3.436 | 3.436 | 3.436 Mbytes
Step Temp PotEng KinEng TotEng 
       0    11.975579   -1.7950808   0.05727471   -1.7378061 
    1000    11.723941   -1.7164318  0.056071217   -1.6603606 
    2000    11.758623   -1.7049791  0.056237086    -1.648742 
    3000    10.554972   -1.7308805  0.050480475   -1.6804001 
    4000     17.58482   -1.7037621  0.084101605   -1.6196605 
    5000    15.468794   -1.6933101  0.073981445   -1.6193287 
    6000    16.260738    -1.707632  0.077769019   -1.6298629 
    7000    13.976902   -1.6821448  0.066846287   -1.6152985 
    8000    15.319404   -1.6922417  0.073266971   -1.6189747 
    9000    17.673865   -1.6898819  0.084527473   -1.6053544 
   10000    14.554452   -1.6820532   0.06960849   -1.6124447 
   11000    19.135654   -1.6756111  0.091518662   -1.5840924 
   12000    27.061363   -1.6585714   0.12942436   -1.5291471 
   13000    24.277196   -1.6652526   0.11610873   -1.5491439 
   14000      25.0636   -1.6697293   0.11986981   -1.5498595 
   15000    26.396351   -1.6677673   0.12624386   -1.5415234 
   16000    20.190489   -1.6491158  0.096563547   -1.5525522 
   17000    22.471725   -1.6725893   0.10747384   -1.5651155 
   18000    22.999629   -1.6752716   0.10999861    -1.565273 
   19000    19.114345   -1.6791921   0.09141675   -1.5877753 
   20000      21.1643   -1.6746325   0.10122092   -1.5734116 
   21000    17.729968   -1.6709667  0.084795796   -1.5861709 
   22000    22.690261   -1.6796578   0.10851902   -1.5711388 
   23000    25.642461   -1.6415553   0.12263828    -1.518917 
   24000    22.097835   -1.6705997   0.10568567   -1.5649141 
   25000     24.40728   -1.6532561   0.11673088   -1.5365252 
   26000    19.010687   -1.6827083  0.090920995   -1.5917873 
   27000    20.083455   -1.6445483  0.096051642   -1.5484966 
   28000    23.926056   -1.6831059   0.11442936   -1.5686765 
   29000    21.746494   -1.6869912   0.10400533   -1.5829859 
   30000    20.512591   -1.6434565   0.09810404   -1.5453524 
   31000    28.259407   -1.7168189   0.13515416   -1.5816648 
   32000    24.082178   -1.6391976   0.11517603   -1.5240216 
   33000    25.321844   -1.6771947   0.12110489   -1.5560898 
   34000    18.476448    -1.646354  0.088365929   -1.5579881 
   35000    16.362451   -1.6540278  0.078255473   -1.5757723 
   36000     16.38177   -1.6677908  0.078347869   -1.5894429 
   37000    23.002274   -1.6528274   0.11001126   -1.5428161 
   38000    17.432095   -1.6323356  0.083371181   -1.5489644 
   39000    22.040942   -1.6734015   0.10541357   -1.5679879 
   40000    20.617104   -1.6514848  0.098603885   -1.5528809 
   41000    20.697477    -1.683397  0.098988279   -1.5844088 
   42000    18.698478   -1.6582954  0.089427817   -1.5688676 
   43000    23.680384   -1.6908509    0.1132544   -1.5775965 
   44000    20.922579   -1.6827193   0.10006486   -1.5826544 
   45000    27.350345   -1.6643668   0.13080645   -1.5335604 
   46000    22.492941   -1.6843883   0.10757531    -1.576813 
   47000    21.451454   -1.6712612   0.10259427   -1.5686669 
   48000    23.378638   -1.6821238   0.11181127   -1.5703125 
   49000    23.478027   -1.6077349   0.11228661   -1.4954482 
   50000    22.776113   -1.6730181   0.10892962   -1.5640885 
   51000    22.104594   -1.6713214   0.10571799   -1.5656034 
   52000    19.079147   -1.6699142  0.091248415   -1.5786657 
   53000    24.369717   -1.6598545   0.11655123   -1.5433033 
   54000    21.486351   -1.6754173   0.10276117   -1.5726561 
   55000    21.181416   -1.6365096   0.10130278   -1.5352069 
   56000    22.327743   -1.6571072   0.10678523    -1.550322 
   57000    15.243092   -1.6561713  0.072901997   -1.5832693 
   58000    27.129123    -1.653791   0.12974843   -1.5240425 
   59000    22.365671   -1.6590858   0.10696663   -1.5521192 
   60000    25.720734   -1.6757976   0.12301263   -1.5527849 
   61000     17.54791   -1.6716829  0.083925081   -1.5877578 
   62000    17.379582   -1.6810906   0.08312003   -1.5979706 
   63000    28.117555   -1.6491932   0.13447573   -1.5147175 
   64000    23.636113   -1.6558993   0.11304268   -1.5428566 
   65000    22.897175   -1.6868796   0.10950861    -1.577371 
   66000     22.35915   -1.6818367   0.10693544   -1.5749013 
   67000    22.225695   -1.6485084   0.10629717   -1.5422113 
   68000    20.741944   -1.6700621  0.099200948   -1.5708611 
   69000     19.43895   -1.6537544  0.092969217   -1.5607852 
   70000    21.546265   -1.6849967   0.10304772    -1.581949 
   71000    21.591275   -1.6644048   0.10326298   -1.5611418 
   72000    20.197047   -1.6537686   0.09659491   -1.5571737 
   73000    21.530818   -1.6756392   0.10297383   -1.5726653 
   74000    20.567626   -1.6677373  0.098367251     -1.56937 
   75000    20.321284   -1.6609325  0.097189086   -1.5637434 
   76000    20.030735   -1.6421586  0.095799501   -1.5463591 
   77000    21.571969   -1.6791568   0.10317065   -1.5759861 
   78000    18.129002   -1.7308862  0.086704223    -1.644182 
   79000    12.463606   -1.7162944  0.059608757   -1.6566856 
   80000    15.633333   -1.7325811  0.074768373   -1.6578128 
   81000    14.081279   -1.7133058  0.067345482   -1.6459603 
   82000    8.8110044   -1.7315027  0.042139733   -1.6893629 
   83000    13.292328    -1.742193  0.063572226   -1.6786208 
   84000    10.150102   -1.7316815  0.048544137   -1.6831373 
   85000    12.735454   -1.7236036  0.060908906   -1.6626947 
   86000    11.360595   -1.7253258  0.054333471   -1.6709923 
   87000    11.813221   -1.7395274  0.056498208   -1.6830291 
   88000    10.887847    -1.719475  0.052072495   -1.6674025 
   89000    13.721877   -1.7460444  0.065626599   -1.6804178 
   90000    12.142282   -1.7261748  0.058071988   -1.6681028 
   91000    11.321284   -1.7336106  0.054145459   -1.6794652 
   92000    11.563908   -1.7357744  0.055305842   -1.6804685 
   93000    11.010839   -1.7484234  0.052660719   -1.6957627 
   94000    9.7061114   -1.7430558  0.046420695   -1.6966351 
   95000     10.12993   -1.7510768  0.048447661   -1.7026292 
   96000    9.7230786   -1.7473447  0.046501842   -1.7008429 
   97000    9.4884121   -1.7511557   0.04537952   -1.7057762 
   98000    8.2371458   -1.7496658  0.039395183   -1.7102706 
   99000    9.5717241   -1.7441098  0.045777971   -1.6983319 
  100000    9.2873937   -1.7477029  0.044418125   -1.7032847 
  101000    9.7969301    -1.738708  0.046855046   -1.6918529 
  102000    12.014883   -1.7398289  0.057462682   -1.6823662 
  103000    8.0425317   -1.7600418  0.038464416   -1.7215773 
  104000    6.3010744   -1.7658965  0.030135678   -1.7357608 
  105000    7.7667107   -1.7515604  0.037145268   -1.7144152 
  106000    5.5069827   -1.7566268  0.026337835    -1.730289 
  107000    4.9812258   -1.7641802  0.023823337   -1.7403568 
  108000    5.9869026   -1.7672684  0.028633112   -1.7386353 
  109000    5.0260527   -1.7644321  0.024037727   -1.7403943 
  110000    4.8299955   -1.7701672  0.023100059   -1.7470672 
  111000    5.6773743   -1.7686662  0.027152754   -1.7415135 
  112000    4.2765852   -1.7746327  0.020453305   -1.7541794 
  113000    6.4218635   -1.7626242  0.030713367   -1.7319108 
  114000    7.8288939   -1.7606128  0.037442667   -1.7231701 
  115000    6.4193862   -1.7578724  0.030701519   -1.7271709 
  116000    6.2226694   -1.7654342  0.029760697   -1.7356735 
  117000    7.8749909   -1.7620098  0.037663131   -1.7243467 
  118000    5.9793008   -1.7526497  0.028596756   -1.7240529 
  119000    6.1107856   -1.7669855  0.029225598   -1.7377599 
  120000    3.7471548   -1.7695788  0.017921238   -1.7516575 
  121000    4.5860674   -1.7663049  0.021933442   -1.7443714 
  122000    4.2375521   -1.7727303  0.020266624   -1.7524637 
  123000    6.3892717   -1.7690774  0.030557493   -1.7385199 
  124000    5.2366249   -1.7679988  0.025044815    -1.742954 
  125000    4.2087289   -1.7739144  0.020128774   -1.7537857 
  126000    4.7137989   -1.7639795  0.022544334   -1.7414351 
  127000    4.8331425   -1.7691185   0.02311511   -1.7460034 
  128000    4.6544488   -1.7714768  0.022260485   -1.7492163 
  129000    5.9169436   -1.7742072  0.028298525   -1.7459087 
  130000    4.0766193   -1.7721878  0.019496943   -1.7526909 
  131000    5.4413894   -1.7683291  0.026024127    -1.742305 
  132000    4.7769673   -1.7685981  0.022846445   -1.7457516 
  133000     5.181392   -1.7702939  0.024780657   -1.7455132 
  134000    5.4910033   -1.7729391  0.026261412   -1.7466777 
  135000     4.702315   -1.7699785  0.022489411   -1.7474891 
  136000    5.4129277   -1.7720374  0.025888005   -1.7461494 
  137000    3.7593183   -1.7672936  0.017979411   -1.7493142 
  138000    5.1425751   -1.7711282   0.02459501   -1.7465332 
  139000     4.094096   -1.7793949  0.019580528   -1.7598144 
  140000    4.1257361   -1.7742432   0.01973185   -1.7545113 
  141000    4.4172015   -1.7692075   0.02112582   -1.7480817 
  142000    6.5170702   -1.7684892  0.031168705   -1.7373205 
  143000    5.7461861   -1.7609927  0.027481856   -1.7335109 
  144000    6.4666811   -1.7646965  0.030927713   -1.7337688 
  145000    7.4965148   -1.7564573  0.035853022   -1.7206042 
  146000    7.0151508   -1.7437473  0.033550838   -1.7101964 
  147000    5.8711986   -1.7649783  0.028079744   -1.7368985 
  148000    6.5419752   -1.7552133  0.031287817   -1.7239255 
  149000    5.9338288   -1.7616676   0.02837928   -1.7332883 
  150000    6.2766302   -1.7684274  0.030018771   -1.7384086 
  151000    6.5972347   -1.7670017  0.031552102   -1.7354496 
  152000    4.5047802   -1.7753313  0.021544676   -1.7537866 
  153000    4.4895684   -1.7689275  0.021471923   -1.7474556 
  154000    5.2255659   -1.7762808  0.024991924   -1.7512889 
  155000    5.9359309   -1.7722003  0.028389334   -1.7438109 
  156000    4.2613465   -1.7709039  0.020380424   -1.7505235 
  157000    4.7229269   -1.7714488   0.02258799   -1.7488608 
  158000    5.1584068   -1.7656314  0.024670727   -1.7409607 
  159000    4.6569399    -1.771262  0.022272399   -1.7489896 
  160000    4.1132317    -1.776276  0.019672046   -1.7566039 
  161000    5.0988873   -1.7701576  0.024386068   -1.7457715 
  162000    4.6765253   -1.7664342  0.022366068   -1.7440681 
  163000    4.3150746   -1.7629014  0.020637385   -1.7422641 
  164000    6.0953726   -1.7667576  0.029151884   -1.7376057 
  165000    5.8247163   -1.7649535  0.027857436   -1.7370961 
  166000    6.4459262   -1.7577654   0.03082845    -1.726937 
  167000    7.7420139   -1.7650114  0.037027152   -1.7279843 
  168000    5.9689957   -1.7602367   0.02854747   -1.7316893 
  169000    6.2320703   -1.7615692  0.029805657   -1.7317635 
  170000    6.1293812   -1.7584997  0.029314534   -1.7291851 
  171000    7.0442719   -1.7550563  0.033690113   -1.7213662 
  172000    7.3297253   -1.7616808   0.03505533   -1.7266254 
  173000    6.7344364    -1.762368  0.032208286   -1.7301597 
  174000    7.0255916   -1.7729616  0.033600773   -1.7393608 
  175000    4.0890718   -1.7693893  0.019556498   -1.7498328 
  176000    4.9609537   -1.7657537  0.023726383   -1.7420274 
  177000    4.9765595   -1.7738203   0.02380102   -1.7500193 
  178000     4.108738   -1.7717659  0.019650555   -1.7521153 
  179000    4.8541399   -1.7748249  0.023215532   -1.7516093 
  180000    3.6524942   -1.7771455  0.017468512    -1.759677 
  181000    3.7015435   -1.7783581  0.017703096    -1.760655 
  182000    3.9395771     -1.78241  0.018841521   -1.7635685 
  183000    3.3468583   -1.7782948  0.016006769    -1.762288 
  184000     3.583624   -1.7737592  0.017139131   -1.7566201 
  185000     3.165147   -1.7803833  0.015137712   -1.7652456 
  186000    3.2534557   -1.7791699   0.01556006   -1.7636098 
  187000    3.1673927   -1.7760601  0.015148453   -1.7609116 
  188000     3.557363   -1.7751669  0.017013534   -1.7581534 
  189000    3.3030458   -1.7785567   0.01579723   -1.7627595 
  190000    3.8085178   -1.7807551  0.018214714   -1.7625404 
  191000     3.821084   -1.7799478  0.018274813    -1.761673 
  192000    3.6928367   -1.7798396  0.017661455   -1.7621781 
  193000    4.5204202   -1.7782262  0.021619477   -1.7566068 
  194000    3.7476493   -1.7742579  0.017923603   -1.7563343 
  195000    4.3022072   -1.7828382  0.020575845   -1.7622624 
  196000    3.2205827   -1.7770616   0.01540284   -1.7616587 
  197000    3.6718828   -1.7820624   0.01756124   -1.7645012 
  198000    4.0963649   -1.7792991  0.019591379   -1.7597077 
  199000    4.4343774   -1.7798163  0.021207966   -1.7586083 
  200000    3.5558521   -1.7746325  0.017006308   -1.7576262 
  201000    4.8215589    -1.778416   0.02305971   -1.7553563 
  202000    4.1210023   -1.7756942   0.01970921    -1.755985 
  203000    4.3234962   -1.7786175  0.020677662   -1.7579399 
  204000    3.7626033   -1.7780107  0.017995122   -1.7600155 
  205000     2.911935   -1.7791839  0.013926694   -1.7652572 
  206000    3.5651674   -1.7781686   0.01705086   -1.7611177 
  207000    3.2377469   -1.7768036   0.01548493   -1.7613186 
  208000    4.0675348   -1.7798244  0.019453495   -1.7603709 
  209000    3.8526765     -1.78451  0.018425909   -1.7660841 
  210000    2.9014386   -1.7762859  0.013876494   -1.7624094 
  211000     2.780677   -1.7730612  0.013298936   -1.7597623 
  212000    3.3614367   -1.7779558  0.016076492   -1.7618793 
  213000    3.5956926   -1.7811967  0.017196851   -1.7639999 
  214000    3.4281385   -1.7770613  0.016395502   -1.7606658 
  215000    3.7725296   -1.7760362  0.018042596   -1.7579936 
  216000    3.2609517    -1.771705   0.01559591   -1.7561091 
  217000    5.4777584   -1.7745685  0.026198066   -1.7483705 
  218000    5.6207488   -1.7702624  0.026881936   -1.7433805 
  219000     4.675223    -1.765544   0.02235984   -1.7431842 
  220000    5.8011161   -1.7670713  0.027744565   -1.7393267 
  221000    5.1570625   -1.7714168  0.024664298   -1.7467525 
  222000    6.0466055   -1.7729781  0.028918649   -1.7440595 
  223000    5.3733928   -1.7761554  0.025698925   -1.7504565 
  224000    4.7896094   -1.7745701  0.022906907   -1.7516632 
  225000    6.2811183   -1.7693647  0.030040236   -1.7393245 
  226000    6.0007546   -1.7716457  0.028699361   -1.7429464 
  227000    4.7187146   -1.7701461  0.022567844   -1.7475782 
  228000    7.5924485   -1.7710646  0.036311837   -1.7347527 
  229000    5.6482168   -1.7746401  0.027013305   -1.7476268 
  230000     5.827638   -1.7641833  0.027871409   -1.7363118 
  231000     6.933786    -1.752669  0.033161701   -1.7195073 
  232000    8.0222795   -1.7603849  0.038367557   -1.7220174 
  233000    6.2778081   -1.7759445  0.030024404   -1.7459201 
  234000     5.958617   -1.7714434  0.028497833   -1.7429456 
  235000    4.6389152   -1.7564793  0.022186194   -1.7342931 
  236000    4.4277916   -1.7741814  0.021176468   -1.7530049 
  237000    5.0292299   -1.7730393  0.024052923   -1.7489864 
  238000    5.7273431   -1.7776296  0.027391736   -1.7502379 
  239000     2.989247   -1.7767852  0.014296449   -1.7624887 
  240000    4.2114149   -1.7811398   0.02014162   -1.7609982 
  241000    2.5819249   -1.7854248  0.012348379   -1.7730765 
  242000    3.4740432    -1.777422  0.016615047    -1.760807 
  243000    3.6210467   -1.7780092   0.01731811   -1.7606911 
  244000    3.0090694    -1.781841  0.014391252   -1.7674497 
  245000    3.5725545   -1.7818455   0.01708619   -1.7647593 
  246000    2.9271516   -1.7844271   0.01399947   -1.7704276 
  247000    1.8728576   -1.7865052 0.0089571761   -1.7775481 
  248000    3.0169884   -1.7851242  0.014429125   -1.7706951 
  249000    3.1706678   -1.7850621  0.015164116    -1.769898 
  250000    3.2457579   -1.7845226  0.015523244   -1.7689994 
  251000    2.6241826   -1.7829241  0.012550482   -1.7703736 
  252000    2.6607535   -1.7855344  0.012725387    -1.772809 
  253000    1.9312614   -1.7888356 0.0092364999   -1.7795991 
  254000    1.7259964   -1.7887447 0.0082547942   -1.7804899 
  255000    2.0084661   -1.7924384 0.0096057409   -1.7828326 
  256000    1.6583072   -1.7879198 0.0079310621   -1.7799888 
  257000    2.2293041   -1.7887799  0.010661926    -1.778118 
  258000    1.8340594   -1.7886116 0.0087716192   -1.7798399 
  259000    1.8031317   -1.7911304 0.0086237032   -1.7825067 
  260000    1.8850274   -1.7887802 0.0090153801   -1.7797648 
  261000    1.6987463   -1.7884411 0.0081244669   -1.7803167 
  262000    2.5657333   -1.7853834  0.012270941   -1.7731125 
  263000    2.2695776   -1.7859167  0.010854539   -1.7750622 
  264000    2.9906844   -1.7822043  0.014303323    -1.767901 
  265000      2.54552   -1.7875817  0.012174269   -1.7754074 
  266000    3.0822189   -1.7868946  0.014741098   -1.7721535 
  267000    2.7346898   -1.7837343  0.013078997   -1.7706553 
  268000    2.4106299   -1.7801056  0.011529139   -1.7685765 
  269000    2.6849062    -1.788262    0.0128409   -1.7754211 
  270000    2.5215279   -1.7842893  0.012059523   -1.7722298 
  271000    2.3156041   -1.7863839  0.011074667   -1.7753092 
  272000    2.0575314   -1.7885449  0.009840402   -1.7787045 
  273000    2.1177681   -1.7843638  0.010128491   -1.7742353 
  274000    1.9354044   -1.7866742 0.0092563144   -1.7774179 
  275000    2.2463688   -1.7887712   0.01074354   -1.7780277 
  276000    1.6719436   -1.7885875 0.0079962798   -1.7805912 
  277000    2.4992866   -1.7894568  0.011953151   -1.7775036 
  278000    1.9413135   -1.7871258 0.0092845753   -1.7778412 
  279000    2.1036438   -1.7891789   0.01006094    -1.779118 
  280000    2.1413376   -1.7896556  0.010241216   -1.7794143 
  281000    2.3789364   -1.7876058  0.011377562   -1.7762283 
  282000    2.4913017   -1.7872254  0.011914963   -1.7753105 
  283000    2.8534167   -1.7822543  0.013646823   -1.7686075 
  284000    2.1987075   -1.7872608  0.010515594   -1.7767452 
  285000    2.7589848   -1.7843126  0.013195191   -1.7711174 
  286000    2.5356198   -1.7873751  0.012126919   -1.7752482 
  287000    3.1515206    -1.784297  0.015072543   -1.7692245 
  288000    2.2626426   -1.7827281  0.010821372   -1.7719067 
  289000    1.9781078   -1.7801518 0.0094605487   -1.7706912 
  290000    2.2758612   -1.7864018  0.010884591   -1.7755172 
  291000     2.390307   -1.7843849  0.011431943   -1.7729529 
  292000    2.8011159   -1.7855327  0.013396688   -1.7721361 
  293000    2.3549931    -1.784811   0.01126305    -1.773548 
  294000    2.8041154   -1.7851943  0.013411033   -1.7717833 
  295000    2.4738355   -1.7841135  0.011831428   -1.7722821 
  296000    2.6238248   -1.7853187  0.012548771   -1.7727699 
  297000    3.0937343   -1.7794044  0.014796172   -1.7646082 
  298000    2.7260544   -1.7854227  0.013037697    -1.772385 
  299000    2.2517413   -1.7842185  0.010769235   -1.7734493 
  300000    2.7364889   -1.7851437  0.013087601   -1.7720561 
  301000    2.0048706   -1.7803826 0.0095885449    -1.770794 
  302000     2.477676   -1.7893355  0.011849796   -1.7774857 
  303000     1.798233   -1.7877459 0.0086002748   -1.7791456 
  304000    1.7606442    -1.791103 0.0084205016   -1.7826825 
  305000    1.8679187   -1.7890815 0.0089335555   -1.7801479 
  306000    2.0840324   -1.7868346 0.0099671463   -1.7768675 
  307000    2.0083519   -1.7867642 0.0096051947    -1.777159 
  308000    2.4155545   -1.7914409  0.011552692   -1.7798882 
  309000    1.9996607   -1.7876027 0.0095636278   -1.7780391 
  310000    2.1248032   -1.7903102  0.010162138    -1.780148 
  311000    2.3087654   -1.7886537   0.01104196   -1.7776117 
  312000    1.5207967   -1.7886896  0.007273401   -1.7814162 
  313000    2.1309569   -1.7878047  0.010191568   -1.7776131 
  314000    1.9419515    -1.790882 0.0092876264   -1.7815943 
  315000    1.7336284   -1.7870205 0.0082912951   -1.7787292 
  316000    2.1721422   -1.7891775  0.010388542    -1.778789 
  317000    2.2585732   -1.7869141  0.010801909   -1.7761122 
  318000    2.0153992   -1.7885893 0.0096388994   -1.7789504 
  319000    2.0053813      -1.7886 0.0095909875    -1.779009 
  320000    2.0739945   -1.7863413 0.0099191387   -1.7764222 
  321000    2.1265302   -1.7875375  0.010170397   -1.7773671 
  322000    2.0601298   -1.7877868 0.0098528291    -1.777934 
  323000    2.2739491   -1.7871788  0.010875447   -1.7763034 
  324000    1.9719328   -1.7878617 0.0094310159   -1.7784307 
  325000    1.6798788   -1.7885808 0.0080342309   -1.7805465 
  326000     2.008274   -1.7908948 0.0096048224     -1.78129 
  327000    1.5923375    -1.789485 0.0076155539   -1.7818695 
  328000    1.6375853   -1.7873774 0.0078319571   -1.7795454 
  329000    1.7721529    -1.789248 0.0084755436   -1.7807724 
  330000    1.6821188   -1.7867016 0.0080449442   -1.7786566 
  331000    1.9076386   -1.7885604 0.0091235207   -1.7794369 
  332000    2.0147509   -1.7878165 0.0096357987   -1.7781807 
  333000    2.3614273   -1.7873629  0.011293822   -1.7760691 
  334000    1.7205275   -1.7867393 0.0082286383   -1.7785107 
  335000    1.8983204   -1.7885256 0.0090789553   -1.7794466 
  336000    1.9532889   -1.7896919  0.009341849     -1.78035 
  337000    2.2052924   -1.7878992  0.010547087   -1.7773521 
  338000    1.7237783   -1.7889595 0.0082441859   -1.7807153 
  339000    2.2046855   -1.7902748  0.010544185   -1.7797306 
  340000    1.8992427   -1.7853493 0.0090833664   -1.7762659 
  341000    1.8402143   -1.7884374 0.0088010555   -1.7796363 
  342000     2.206263    -1.786777  0.010551729   -1.7762253 
  343000    1.8052487   -1.7903784 0.0086338281   -1.7817446 
  344000    1.9946107   -1.7890862 0.0095394756   -1.7795468 
  345000    2.4637736   -1.7904392  0.011783306   -1.7786558 
  346000     1.736837   -1.7881226 0.0083066405    -1.779816 
  347000     2.212127    -1.787141  0.010579775   -1.7765613 
  348000    2.1748827   -1.7857112  0.010401649   -1.7753095 
  349000    2.3719194   -1.7895199  0.011344002   -1.7781759 
  350000    1.9490394   -1.7878083 0.0093215252   -1.7784868 
  351000    1.6691248   -1.7882647 0.0079827984   -1.7802819 
  352000    1.9058567   -1.7864354 0.0091149987   -1.7773204 
  353000    3.1067298   -1.7861221  0.014858325   -1.7712638 
  354000    2.3492122   -1.7875465  0.011235402   -1.7763111 
  355000    2.2040683   -1.7872565  0.010541233   -1.7767153 
  356000    2.0227571   -1.7893338 0.0096740894   -1.7796598 
  357000    2.5317895   -1.7841356    0.0121086    -1.772027 
  358000    3.1453572   -1.7816595  0.015043065   -1.7666165 
  359000     2.653215   -1.7852347  0.012689334   -1.7725454 
  360000    1.7359036   -1.7916181 0.0083021765   -1.7833159 
  361000    1.6496421   -1.7880689 0.0078896202   -1.7801792 
  362000    1.9534056    -1.791557  0.009342407   -1.7822146 
  363000    1.9433924   -1.7868537 0.0092945178   -1.7775592 
  364000    1.7850956   -1.7899501 0.0085374434   -1.7814126 
  365000    1.8811068   -1.7860391 0.0089966292   -1.7770425 
  366000    2.2961329   -1.7894643  0.010981544   -1.7784828 
  367000    1.9816851   -1.7868701 0.0094776576   -1.7773924 
  368000    1.8759075   -1.7889375  0.008971763   -1.7799657 
  369000    2.4035687   -1.7855308  0.011495369   -1.7740355 
  370000    1.6192884   -1.7868437   0.00774445   -1.7790992 
  371000    2.0992817   -1.7860708  0.010040078   -1.7760307 
  372000    1.6801621   -1.7899318 0.0080355857   -1.7818962 
  373000    1.6431102   -1.7886959 0.0078583803   -1.7808375 
  374000    1.8240499   -1.7894776 0.0087237473   -1.7807539 
  375000    2.2057149   -1.7849827  0.010549108   -1.7744336 
  376000    2.9611684   -1.7826976  0.014162159   -1.7685354 
  377000    2.0182826   -1.7868085 0.0096526896   -1.7771558 
  378000    2.8462325   -1.7868113  0.013612464   -1.7731989 
  379000    3.1392222   -1.7837225  0.015013724   -1.7687087 
  380000    2.8728803   -1.7862922   0.01373991   -1.7725523 
  381000    3.6794902   -1.7857548  0.017597623   -1.7681572 
  382000    2.0724873   -1.7848488 0.0099119303   -1.7749369 
  383000    2.8104231   -1.7814967  0.013441201   -1.7680555 
  384000    2.2619304   -1.7827923  0.010817966   -1.7719743 
  385000    2.8421783   -1.7844522  0.013593074   -1.7708591 
  386000    2.1647038   -1.7855534  0.010352968   -1.7752004 
  387000    2.7011945   -1.7834711  0.012918801   -1.7705523 
  388000    2.4102766    -1.781568   0.01152745   -1.7700405 
  389000    2.3654362   -1.7857607  0.011312995   -1.7744477 
  390000    1.8903347   -1.7854075 0.0090407628   -1.7763667 
  391000    2.0701503   -1.7869577 0.0099007536    -1.777057 
  392000    2.5257247   -1.7850336  0.012079595    -1.772954 
  393000    3.2107172   -1.7840693  0.015355658   -1.7687136 
  394000    2.2872111   -1.7814324  0.010938874   -1.7704935 
  395000    2.6669605   -1.7874387  0.012755073   -1.7746836 
  396000    2.1290645   -1.7863002  0.010182518   -1.7761177 
  397000    2.6692551    -1.783152  0.012766047   -1.7703859 
  398000    2.8858935   -1.7860557  0.013802147   -1.7722536 
  399000     2.976623   -1.7834993  0.014236073   -1.7692632 
  400000    3.1259781   -1.7864704  0.014950382     -1.77152 
  401000    2.2997445   -1.7871938  0.010998816    -1.776195 
  402000    2.6623344   -1.7860771  0.012732948   -1.7733441 
  403000     2.640822    -1.780009  0.012630062    -1.767379 
  404000    3.7207187   -1.7784843  0.017794804   -1.7606895 
  405000    3.2784881   -1.7775045   0.01567978   -1.7618247 
  406000    3.6328283   -1.7823223  0.017374457   -1.7649478 
  407000    3.6517621   -1.7824992   0.01746501   -1.7650342 
  408000     2.445277   -1.7847684  0.011694844   -1.7730736 
  409000    2.3017182   -1.7839183  0.011008256     -1.77291 
  410000    2.1361537   -1.7833473  0.010216423   -1.7731308 
  411000    2.6542327   -1.7875467  0.012694201   -1.7748525 
  412000    2.5925369   -1.7848374  0.012399133   -1.7724383 
  413000    2.7938872    -1.785708  0.013362116   -1.7723459 
  414000      3.10311   -1.7817962  0.014841012   -1.7669551 
  415000    2.2148296   -1.7842528    0.0105927   -1.7736601 
  416000    3.1479094   -1.7828866  0.015055271   -1.7678314 
  417000    1.9742731   -1.7863971 0.0094422088   -1.7769549 
  418000    2.3712409   -1.7873718  0.011340757   -1.7760311 
  419000    2.9321804   -1.7847114   0.01402352   -1.7706879 
  420000     2.492565   -1.7862721  0.011921005   -1.7743511 
  421000     1.763709   -1.7915075 0.0084351593   -1.7830723 
  422000    1.7664518    -1.787798 0.0084482772   -1.7793497 
  423000    1.9761141   -1.7898827 0.0094510132   -1.7804317 
  424000    1.9420916   -1.7905632 0.0092882963   -1.7812749 
  425000    1.9856963   -1.7903805 0.0094968416   -1.7808837 
  426000    2.0051047   -1.7882516 0.0095896644   -1.7786619 
  427000    1.8529539   -1.7908245 0.0088619845   -1.7819625 
  428000    1.8998499   -1.7903814 0.0090862702   -1.7812952 
  429000    1.9881109   -1.7885731 0.0095083895   -1.7790647 
  430000    1.9674884   -1.7839379 0.0094097598   -1.7745282 
  431000    2.6977288    -1.782048  0.012902226   -1.7691458 
  432000    2.1510638   -1.7843308  0.010287732   -1.7740431 
  433000    2.2470676   -1.7864156  0.010746882   -1.7756688 
  434000    1.6915965   -1.7904813 0.0080902722    -1.782391 
  435000    2.1152928   -1.7907447  0.010116653    -1.780628 
  436000     2.069815   -1.7887531 0.0098991495    -1.778854 
  437000      2.17767   -1.7867859   0.01041498   -1.7763709 
  438000    2.5437564   -1.7866707  0.012165834   -1.7745049 
  439000     2.180636   -1.7892475  0.010429165   -1.7788184 
  440000    2.7129822   -1.7850887  0.012975177   -1.7721135 
  441000    2.7880665   -1.7825694  0.013334278   -1.7692351 
  442000    2.9483472   -1.7830162   0.01410084   -1.7689154 
  443000    2.9925335   -1.7845508  0.014312167   -1.7702386 
  444000    2.2371132   -1.7884873  0.010699274    -1.777788 
  445000    2.5162828   -1.7828636  0.012034438   -1.7708291 
  446000    2.3139924   -1.7829866  0.011066959   -1.7719197 
  447000    2.6394922   -1.7856681  0.012623702   -1.7730444 
  448000    2.0266771   -1.7844946 0.0096928372   -1.7748017 
  449000    2.3851051   -1.7861968  0.011407064   -1.7747897 
  450000    2.3684729   -1.7894737  0.011327519   -1.7781461 
  451000     2.528092   -1.7800637  0.012090917   -1.7679727 
  452000    2.2044336   -1.7846727   0.01054298   -1.7741297 
  453000    2.6227885   -1.7841262  0.012543815   -1.7715824 
  454000    2.5826575   -1.7852462  0.012351883   -1.7728943 
  455000    3.2008734   -1.7856142  0.015308579   -1.7703056 
  456000    2.5210016   -1.7826428  0.012057006   -1.7705858 
  457000    3.4086714   -1.7823748  0.016302398   -1.7660724 
  458000    2.5324299   -1.7870872  0.012111664   -1.7749755 
  459000    2.5589302   -1.7840924  0.012238404    -1.771854 
  460000    2.5432128   -1.7878144  0.012163234   -1.7756512 
  461000     2.546524   -1.7861404   0.01217907   -1.7739613 
  462000    2.0196128   -1.7836679 0.0096590515   -1.7740088 
  463000     2.433094   -1.7916234  0.011636577   -1.7799868 
  464000    2.5248599   -1.7854638  0.012075459   -1.7733883 
  465000    2.5960159   -1.7800638  0.012415772    -1.767648 
  466000    1.7239418   -1.7880618 0.0082449676   -1.7798169 
  467000    3.0576188   -1.7820884  0.014623445    -1.767465 
  468000    2.1292359   -1.7822398  0.010183337   -1.7720565 
  469000    2.4749007   -1.7849104  0.011836523   -1.7730739 
  470000    2.4157177   -1.7790511  0.011553473   -1.7674977 
  471000     2.222389   -1.7855017  0.010628854   -1.7748728 
  472000    2.8676767   -1.7838133  0.013715023   -1.7700983 
  473000    2.9919824   -1.7836094  0.014309531   -1.7692999 
  474000    2.5264341   -1.7863431  0.012082988   -1.7742601 
  475000    2.5053694   -1.7827583  0.011982243   -1.7707761 
  476000    2.1409456   -1.7826988  0.010239341   -1.7724594 
  477000    2.3299577   -1.7839912  0.011143315   -1.7728479 
  478000    2.5550166   -1.7852026  0.012219687   -1.7729829 
  479000     1.855934   -1.7821875 0.0088762369   -1.7733112 
  480000    2.3873628    -1.784356  0.011417862   -1.7729381 
  481000    3.1665086   -1.7763905  0.015144225   -1.7612462 
  482000     3.910144   -1.7731227  0.018700754   -1.7544219 
  483000    3.7164018    -1.778291  0.017774157   -1.7605168 
  484000    4.1817129   -1.7767586  0.019999566    -1.756759 
  485000    4.0515428   -1.7811467  0.019377011   -1.7617697 
  486000    2.6936818   -1.7871136  0.012882871   -1.7742307 
  487000    2.6937425   -1.7810711  0.012883161   -1.7681879 
  488000    2.0459855     -1.78626 0.0097851822   -1.7764748 
  489000    2.5276979   -1.7845231  0.012089032   -1.7724341 
  490000     2.913336    -1.783082  0.013933394   -1.7691486 
  491000    2.7418889   -1.7876362  0.013113427   -1.7745228 
  492000    2.5779647   -1.7864327  0.012329439   -1.7741033 
  493000    2.8595407   -1.7833719  0.013676112   -1.7696958 
  494000    2.5280095   -1.7894221  0.012090522   -1.7773316 
  495000    1.6146027    -1.785698 0.0077220397    -1.777976 
  496000    1.9540092   -1.7886067  0.009345294   -1.7792614 
  497000    1.7007865   -1.7926581 0.0081342246   -1.7845239 
  498000    1.9495555   -1.7843313 0.0093239937   -1.7750073 
  499000    2.7785229   -1.7873951  0.013288634   -1.7741064 
  500000    1.9532199   -1.7868211 0.0093415189   -1.7774796 
  501000    2.5551487   -1.7835413  0.012220319    -1.771321 
  502000    3.1975875   -1.7852319  0.015292863    -1.769939 
  503000     2.438295   -1.7854173  0.011661451   -1.7737559 
  504000    2.1382146   -1.7815796  0.010226279   -1.7713534 
  505000    2.1483312   -1.7863539  0.010274663   -1.7760792 
  506000    2.2327484   -1.7840905  0.010678399   -1.7734121 
  507000    2.2025406   -1.7846019  0.010533926    -1.774068 
  508000    2.3573837   -1.7857781  0.011274483   -1.7745036 
  509000     2.225503   -1.7821435  0.010643747   -1.7714997 
  510000    2.3024307   -1.7858514  0.011011664   -1.7748397 
  511000    3.1611154   -1.7870086   0.01511843   -1.7718902 
  512000    2.8871516   -1.7816968  0.013808164   -1.7678887 
  513000    2.6629152   -1.7862079  0.012735726   -1.7734722 
  514000     2.674163   -1.7824047   0.01278952   -1.7696152 
  515000    2.0630515   -1.7846274 0.0098668024   -1.7747606 
  516000    2.8740867    -1.786273   0.01374568   -1.7725273 
  517000    2.6705705    -1.785409  0.012772338   -1.7726367 
  518000    2.8682735   -1.7838968  0.013717878   -1.7701789 
  519000    2.3474739   -1.7877693  0.011227088   -1.7765422 
  520000    2.6007969    -1.782818  0.012438637   -1.7703794 
  521000    2.0315246   -1.7841059 0.0097160213   -1.7743899 
  522000    2.8646882   -1.7841347   0.01370073   -1.7704339 
  523000    2.9208352   -1.7837915   0.01396926   -1.7698222 
  524000    2.7031402   -1.7848821  0.012928107    -1.771954 
  525000    2.3098397   -1.7851965  0.011047098   -1.7741494 
  526000     2.327021   -1.7851667   0.01112927   -1.7740374 
  527000    1.8977675    -1.785266 0.0090763109   -1.7761896 
  528000    2.6731557   -1.7823765  0.012784702   -1.7695918 
  529000    2.4065448   -1.7816852  0.011509602   -1.7701756 
  530000    2.5327152   -1.7836891  0.012113028    -1.771576 
  531000    2.7418626   -1.7844281  0.013113302   -1.7713148 
  532000    3.5486908   -1.7868033  0.016972058   -1.7698312 
  533000     2.336392   -1.7844071  0.011174088    -1.773233 
  534000     2.170183   -1.7860104  0.010379172   -1.7756312 
  535000    2.4080023   -1.7839344  0.011516573   -1.7724178 
  536000    2.0646825   -1.7868206 0.0098746029    -1.776946 
  537000    2.7438373   -1.7820379  0.013122746   -1.7689152 
  538000    3.2282637   -1.7808396  0.015439576      -1.7654 
  539000    2.3157816   -1.7855336  0.011075516   -1.7744581 
  540000      2.89836   -1.7836754   0.01386177   -1.7698136 
  541000    2.4294226   -1.7856928  0.011619018   -1.7740738 
  542000    2.3964133   -1.7857399  0.011461147   -1.7742788 
  543000    3.1046493   -1.7847604  0.014848374    -1.769912 
  544000    2.5270217   -1.7833882  0.012085798   -1.7713024 
  545000     2.448676   -1.7849326    0.0117111   -1.7732215 
  546000    3.0470029   -1.7854893  0.014572673   -1.7709166 
  547000    2.2420595   -1.7863898  0.010722931   -1.7756669 
  548000    2.3580217   -1.7878186  0.011277534   -1.7765411 
  549000    2.4472858   -1.7815412  0.011704451   -1.7698367 
  550000    2.6897905   -1.7889181   0.01286426   -1.7760538 
  551000    2.4731383   -1.7865707  0.011828094   -1.7747426 
  552000    2.8157832   -1.7848904  0.013466836   -1.7714236 
  553000    2.1528959   -1.7837935  0.010296495    -1.773497 
  554000    3.0585363   -1.7848724  0.014627833   -1.7702446 
  555000    2.6916888   -1.7848434  0.012873339     -1.77197 
  556000    2.3980009   -1.7825431   0.01146874   -1.7710743 
  557000     2.456656   -1.7853935  0.011749265   -1.7736442 
  558000    2.0734619   -1.7813507 0.0099165914   -1.7714341 
  559000    2.4015541   -1.7858439  0.011485733   -1.7743581 
  560000    2.3344751   -1.7879134   0.01116492   -1.7767484 
  561000    1.6814383   -1.7874493 0.0080416894   -1.7794076 
  562000    2.0480764   -1.7917743 0.0097951821   -1.7819791 
  563000     1.962964   -1.7882176 0.0093881214   -1.7788295 
  564000    2.1819664   -1.7859353  0.010435528   -1.7754998 
  565000    2.5029829   -1.7876781   0.01197083   -1.7757072 
  566000    2.3731821   -1.7875439  0.011350041   -1.7761939 
  567000    2.2727228   -1.7848165  0.010869582   -1.7739469 
  568000    2.5450269   -1.7878272   0.01217191   -1.7756553 
  569000      2.52031   -1.7856307  0.012053699    -1.773577 
  570000    3.1384284   -1.7860931  0.015009927   -1.7710831 
  571000    2.5390484    -1.780709  0.012143317   -1.7685657 
  572000    2.2942767   -1.7880538  0.010972666   -1.7770811 
  573000    2.4609406    -1.786467  0.011769757   -1.7746972 
  574000    2.3921106   -1.7857199  0.011440569   -1.7742793 
  575000    1.9797658   -1.7821443  0.009468478   -1.7726758 
  576000    2.6753903   -1.7748496   0.01279539   -1.7620542 
  577000     5.359792    -1.769166  0.025633877   -1.7435321 
  578000    4.4913801   -1.7694367  0.021480589   -1.7479561 
  579000     5.488012    -1.774326  0.026247106   -1.7480789 
  580000    3.2806396   -1.7788539   0.01569007   -1.7631638 
  581000    3.3078334   -1.7766397  0.015820128   -1.7608196 
  582000    2.7212514   -1.7739153  0.013014726   -1.7609005 
  583000    4.4957351   -1.7720587  0.021501417   -1.7505573 
  584000    3.5332958   -1.7777456   0.01689843   -1.7608472 
  585000    4.1576803   -1.7751957  0.019884627   -1.7553111 
  586000    3.4530474   -1.7781485  0.016514632   -1.7616339 
  587000     4.082666   -1.7753115  0.019525862   -1.7557857 
  588000    3.6551608   -1.7730586  0.017481265   -1.7555773 
  589000    3.6374363   -1.7825052  0.017396495   -1.7651087 
  590000    2.8037966   -1.7801601  0.013409509   -1.7667506 
  591000    2.8864921   -1.7789294   0.01380501   -1.7651244 
  592000    3.5129154   -1.7787391  0.016800958   -1.7619382 
  593000    2.7327506   -1.7752931  0.013069722   -1.7622234 
  594000     3.179912   -1.7737155  0.015208328   -1.7585071 
  595000    3.3523031   -1.7830395   0.01603281   -1.7670067 
  596000    3.6221054   -1.7832785  0.017323173   -1.7659553 
  597000    2.9168779   -1.7835989  0.013950334   -1.7696486 
  598000    3.0491448   -1.7815496  0.014582917   -1.7669666 
  599000    3.0295881   -1.7836686  0.014489385   -1.7691792 
  600000     2.056232   -1.7876237 0.0098341872   -1.7777895 
  601000    2.7760364   -1.7865067  0.013276742     -1.77323 
  602000    2.6344902   -1.7865855   0.01259978   -1.7739857 
  603000     2.072754   -1.7885767 0.0099132058   -1.7786634 
  604000    1.9165306   -1.7877088 0.0091660477   -1.7785428 
  605000    1.6057833   -1.7902045 0.0076798597   -1.7825247 
  606000    2.3424133   -1.7867485  0.011202885   -1.7755456 
  607000    1.4987453   -1.7895878 0.0071679371   -1.7824198 
  608000    2.0011154   -1.7843547 0.0095705853   -1.7747841 
  609000    2.1874692   -1.7869307  0.010461846   -1.7764689 
  610000    1.5870825   -1.7894286 0.0075904212   -1.7818382 
  611000    1.8743938    -1.787667 0.0089645232   -1.7787025 
  612000    2.1111368   -1.7856598  0.010096777    -1.775563 
  613000    1.9599372   -1.7892903 0.0093736455   -1.7799167 
  614000    2.0069184   -1.7867774 0.0095983387    -1.777179 
  615000    1.8467924   -1.7906175  0.008832516    -1.781785 
  616000    2.0342851   -1.7893355 0.0097292234   -1.7796062 
  617000    3.2636243   -1.7882246  0.015608692   -1.7726159 
  618000    2.0383134   -1.7876078 0.0097484892   -1.7778593 
  619000    2.0659437    -1.787077 0.0098806349   -1.7771964 
  620000    2.6255477   -1.7880803  0.012557011   -1.7755233 
  621000    1.6516897   -1.7905004  0.007899413    -1.782601 
  622000    2.1265187   -1.7887193  0.010170342   -1.7785489 
  623000    1.8841916   -1.7862207 0.0090113825   -1.7772093 
  624000    1.9997072   -1.7880949 0.0095638505    -1.778531 
  625000     1.862962    -1.787507 0.0089098491   -1.7785972 
  626000    1.6844701   -1.7871621 0.0080561892   -1.7791059 
  627000    2.7299714   -1.7833113  0.013056431   -1.7702548 
  628000    2.4882942    -1.783599  0.011900579   -1.7716984 
  629000    2.7944069   -1.7851814  0.013364601   -1.7718168 
  630000    2.7605955   -1.7844608  0.013202894   -1.7712579 
  631000    1.9885604   -1.7831626 0.0095105395    -1.773652 
  632000    2.7975832   -1.7859235  0.013379792   -1.7725437 
  633000    2.9107543    -1.783543  0.013921047    -1.769622 
  634000    2.5155555   -1.7839348  0.012030959   -1.7719039 
  635000    2.7480727   -1.7852179  0.013143002   -1.7720749 
  636000    2.4921945   -1.7847795  0.011919232   -1.7728603 
  637000     2.699554   -1.7823577  0.012910956   -1.7694468 
  638000    2.7188079   -1.7870698   0.01300304   -1.7740668 
  639000    2.5112033   -1.7837321  0.012010145    -1.771722 
  640000    2.7537638   -1.7827855   0.01317022   -1.7696153 
  641000    2.5903481   -1.7826118  0.012388664   -1.7702231 
  642000     2.444606   -1.7861307  0.011691635   -1.7744391 
  643000    2.8744734   -1.7870301  0.013747529   -1.7732826 
  644000    2.3067019   -1.7876423  0.011032091   -1.7766102 
  645000    2.3008694   -1.7850461  0.011004196   -1.7740419 
  646000    2.9023796   -1.7759294  0.013880994   -1.7620484 
  647000    6.1372429   -1.7747537  0.029352134   -1.7454016 
  648000    5.8133592   -1.7731891  0.027803119   -1.7453859 
  649000    4.9645937   -1.7654046  0.023743792   -1.7416608 
  650000    6.1685147   -1.7706105  0.029501695   -1.7411088 
  651000    4.2726002   -1.7705839  0.020434246   -1.7501496 
  652000    5.3625691   -1.7720861  0.025647159    -1.746439 
  653000    5.4007251    -1.769859  0.025829645   -1.7440294 
  654000    4.8626814   -1.7673036  0.023256383   -1.7440473 
  655000    6.5159342   -1.7768141  0.031163272   -1.7456509 
  656000    4.3629218   -1.7766719   0.02086622   -1.7558056 
  657000     4.938793   -1.7682775  0.023620397   -1.7446571 
  658000    5.3175062   -1.7631186   0.02543164    -1.737687 
  659000    4.7602216   -1.7698473  0.022766356   -1.7470809 
  660000    4.5275454   -1.7723988  0.021653554   -1.7507452 
  661000    4.8750541   -1.7714458  0.023315558   -1.7481303 
  662000    5.7985847   -1.7640238  0.027732458   -1.7362914 
  663000    4.6156587    -1.770556  0.022074966   -1.7484811 
  664000    5.0135097      -1.7683  0.023977739   -1.7443222 
  665000    5.0064721   -1.7804375  0.023944081   -1.7564934 
  666000    4.5212439   -1.7694216  0.021623416   -1.7477982 
  667000    4.3309064   -1.7623901  0.020713103    -1.741677 
  668000    7.0005762   -1.7598312  0.033481133     -1.72635 
  669000    5.6152701   -1.7547355  0.026855733   -1.7278798 
  670000    6.3929304   -1.7698903  0.030574991   -1.7393153 
  671000     5.142811    -1.773734  0.024596138   -1.7491379 
  672000    4.6711208   -1.7685725  0.022340221   -1.7462323 
  673000    6.2770632   -1.7652333  0.030020842   -1.7352124 
  674000    5.4480218   -1.7690451  0.026055847   -1.7429893 
  675000    4.3884905   -1.7803376  0.020988506   -1.7593491 
  676000    3.2847622   -1.7724625  0.015709787   -1.7567528 
  677000    3.9417428   -1.7767303  0.018851879   -1.7578785 
  678000    3.3972931   -1.7813312   0.01624798   -1.7650833 
  679000    3.1966178   -1.7784266  0.015288226   -1.7631384 
  680000    2.3490565   -1.7875039  0.011234657   -1.7762692 
  681000    2.1717457   -1.7845359  0.010386646   -1.7741493 
  682000    2.7408188   -1.7819579   0.01310831   -1.7688496 
  683000    2.7112693   -1.7858106  0.012966986   -1.7728437 
  684000    2.4962024   -1.7843259  0.011938401   -1.7723875 
  685000    2.8206264   -1.7845725      0.01349   -1.7710825 
  686000    2.2614353   -1.7844293  0.010815598   -1.7736137 
  687000    2.6837876   -1.7827596  0.012835551    -1.769924 
  688000    2.5829873   -1.7829711  0.012353461   -1.7706177 
  689000    2.5902842   -1.7890764  0.012388359    -1.776688 
  690000    1.7782852   -1.7921806 0.0085048718   -1.7836757 
  691000    2.0898303   -1.7904448 0.0099948754   -1.7804499 
  692000    1.8485515   -1.7906405 0.0088409293   -1.7817995 
  693000    1.9233292   -1.7867117 0.0091985629   -1.7775132 
  694000    2.0152159   -1.7881122 0.0096380229   -1.7784742 
  695000    2.1003781   -1.7901694  0.010045321   -1.7801241 
  696000    2.1153075   -1.7908151  0.010116723   -1.7806984 
  697000    1.6615838   -1.7915954 0.0079467327   -1.7836487 
  698000    2.1123294   -1.7864495   0.01010248    -1.776347 
  699000    1.8062641   -1.7880872 0.0086386846   -1.7794485 
  700000    1.9700749   -1.7861866 0.0094221302   -1.7767644 
  701000    2.1398381   -1.7911659  0.010234044   -1.7809318 
  702000    2.2708542   -1.7880362  0.010860645   -1.7771755 
  703000    2.0219505   -1.7860149 0.0096702319   -1.7763447 
  704000    2.6963766   -1.7824512  0.012895759   -1.7695554 
  705000    2.6053498   -1.7801219  0.012460412   -1.7676615 
  706000    3.1204699   -1.7795568  0.014924039   -1.7646327 
  707000    3.3232212   -1.7767974  0.015893722   -1.7609036 
  708000    3.8999403   -1.7815212  0.018651954   -1.7628692 
  709000    3.1761801    -1.781289  0.015190479   -1.7660985 
  710000    3.0595966   -1.7840204  0.014632904   -1.7693875 
  711000    2.5434174   -1.7875635  0.012164213   -1.7753993 
  712000    2.5241489   -1.7859199  0.012072059   -1.7738479 
  713000    2.9905439   -1.7799784  0.014302651   -1.7656757 
  714000    2.6400712   -1.7831766  0.012626472   -1.7705501 
  715000    2.5948214   -1.7862361  0.012410059   -1.7738261 
  716000    2.8857327   -1.7878966  0.013801378   -1.7740952 
  717000     3.202898   -1.7833281  0.015318261   -1.7680099 
  718000    2.6700069   -1.7840591  0.012769643   -1.7712894 
  719000     2.449942   -1.7780135  0.011717155   -1.7662963 
  720000    2.7911179   -1.7889112  0.013348871   -1.7755623 
  721000     2.142467   -1.7854309  0.010246617   -1.7751843 
  722000    3.9152399   -1.7833171  0.018725125    -1.764592 
  723000    3.9031517   -1.7819496  0.018667312   -1.7632823 
  724000    3.7601623   -1.7776227  0.017983448   -1.7596392 
  725000    3.5477122   -1.7791482  0.016967378   -1.7621809 
  726000    4.0929536   -1.7802543  0.019575064   -1.7606793 
  727000     4.253025   -1.7742988  0.020340625   -1.7539582 
  728000    3.2610482   -1.7799799  0.015596372   -1.7643835 
  729000    3.4288773   -1.7727851  0.016399036    -1.756386 
  730000    4.1495727   -1.7828253  0.019845852   -1.7629794 
  731000    4.6414825   -1.7806445  0.022198472    -1.758446 
  732000    3.8527577   -1.7760005  0.018426297   -1.7575742 
  733000    3.6094223   -1.7829526  0.017262515   -1.7656901 
  734000    3.9866718   -1.7776951  0.019066758   -1.7586283 
  735000    3.7698365   -1.7789018  0.018029716   -1.7608721 
  736000    3.5067907   -1.7815563  0.016771666   -1.7647847 
  737000    4.0335891   -1.7830064  0.019291145   -1.7637152 
  738000    5.0671356   -1.7769447  0.024234211   -1.7527105 
  739000    3.7083906   -1.7810355  0.017735843   -1.7632997 
  740000    2.8495896   -1.7783592  0.013628519   -1.7647307 
  741000    3.7935516   -1.7788638  0.018143136   -1.7607207 
  742000    3.8063875    -1.782273  0.018204525   -1.7640685 
  743000     3.770864   -1.7761193   0.01803463   -1.7580847 
  744000    4.3648079   -1.7762515  0.020875241   -1.7553763 
  745000    4.1538436   -1.7751122  0.019866278   -1.7552459 
  746000    4.0468747   -1.7749027  0.019354686    -1.755548 
  747000    3.4185183   -1.7779467  0.016349492   -1.7615972 
  748000    3.8684854   -1.7847469  0.018501517   -1.7662453 
  749000    4.0504579   -1.7783123  0.019371823   -1.7589405 
  750000    3.5154903    -1.776629  0.016813273   -1.7598157 
  751000    3.5220978   -1.7796385  0.016844874   -1.7627937 
  752000    2.6118621   -1.7840018  0.012491558   -1.7715103 
  753000    2.3579333   -1.7875907  0.011277112   -1.7763135 
  754000     2.465657   -1.7894338  0.011792314   -1.7776415 
  755000     1.892268   -1.7821138 0.0090500087   -1.7730638 
  756000    2.7866901   -1.7891319  0.013327695   -1.7758042 
  757000    2.5018599   -1.7805952  0.011965459   -1.7686297 
  758000    2.9880274   -1.7877459  0.014290616   -1.7734553 
  759000    2.9865389   -1.7857217  0.014283497   -1.7714382 
  760000    2.4370132   -1.7851439  0.011655321   -1.7734885 
  761000    2.5121054   -1.7826515  0.012014459   -1.7706371 
  762000    2.7444274   -1.7834365  0.013125568    -1.770311 
  763000    2.8479615   -1.7832687  0.013620733   -1.7696479 
  764000    2.8183241   -1.7894046  0.013478988   -1.7759256 
  765000    2.3031119   -1.7899033  0.011014921   -1.7788884 
  766000    2.0337527   -1.7888341 0.0097266774   -1.7791074 
  767000    1.8053904    -1.785899  0.008634506   -1.7772645 
  768000    2.0820733   -1.7877623 0.0099577764   -1.7778045 
  769000    2.3221992   -1.7841736  0.011106209   -1.7730674 
  770000    2.3752649   -1.7855923  0.011360002   -1.7742323 
  771000    2.8258421   -1.7864081  0.013514944   -1.7728932 
  772000    2.6242057   -1.7830677  0.012550593   -1.7705172 
  773000    2.5815917   -1.7869916  0.012346786   -1.7746448 
  774000    2.8592246   -1.7879863    0.0136746   -1.7743117 
  775000    1.9440386   -1.7878574 0.0092976085   -1.7785598 
  776000    2.0754802   -1.7888759 0.0099262445   -1.7789496 
  777000    2.2147388   -1.7871007  0.010592266   -1.7765085 
  778000     1.860445   -1.7865245 0.0088978116   -1.7776267 
  779000    2.0409735   -1.7898034 0.0097612116   -1.7800422 
  780000    2.1592801   -1.7860545  0.010327028   -1.7757274 
  781000    1.7956562   -1.7830351 0.0085879507   -1.7744471 
  782000    2.6507046   -1.7888195  0.012677327   -1.7761422 
  783000    1.8232387   -1.7881069 0.0087198675    -1.779387 
  784000    1.6156203   -1.7882322 0.0077269068   -1.7805053 
  785000    1.8691984   -1.7890907 0.0089396757    -1.780151 
  786000    2.3381377   -1.7865275  0.011182437    -1.775345 
  787000    2.3495744   -1.7872048  0.011237134   -1.7759677 
  788000     2.427708   -1.7909824  0.011610818   -1.7793716 
  789000    1.8247445   -1.7876684 0.0087270691   -1.7789413 
  790000    2.1145634   -1.7870113  0.010113165   -1.7768982 
  791000    2.3944945   -1.7853031   0.01145197   -1.7738512 
  792000    2.5341412   -1.7820432  0.012119848   -1.7699233 
  793000    2.1172926   -1.7860453  0.010126217   -1.7759191 
  794000     3.142145   -1.7905116  0.015027702   -1.7754839 
  795000    2.6854272   -1.7849251  0.012843392   -1.7720817 
  796000    2.6469607   -1.7816325  0.012659421   -1.7689731 
  797000    2.5422183   -1.7839373  0.012158478   -1.7717788 
  798000    2.6203906   -1.7873297  0.012532347   -1.7747973 
  799000    1.6250793   -1.7895026 0.0077721455   -1.7817304 
  800000    1.9934197   -1.7876502 0.0095337796   -1.7781165 
  801000    1.4349661   -1.7885009 0.0068629053    -1.781638 
  802000    1.8069441    -1.789863 0.0086419369    -1.781221 
  803000    2.2832646   -1.7883359  0.010919999   -1.7774159 
  804000     1.647224   -1.7882149 0.0078780552   -1.7803369 
  805000    1.7118159   -1.7896481 0.0081869743   -1.7814612 
  806000    2.1679159   -1.7879714   0.01036833    -1.777603 
  807000    2.2718563   -1.7859689  0.010865437   -1.7751035 
  808000      2.25134   -1.7898858  0.010767316   -1.7791185 
  809000    1.1999725   -1.7899369  0.005739019   -1.7841979 
  810000    2.1547528   -1.7881422  0.010305376   -1.7778368 
  811000    1.9597011   -1.7864357 0.0093725163   -1.7770631 
  812000    2.0185735   -1.7878545  0.009654081   -1.7782004 
  813000    1.8636966    -1.790677 0.0089133628   -1.7817636 
  814000    1.8916096   -1.7925958 0.0090468601   -1.7835489 
  815000    2.1999783    -1.787739  0.010521672   -1.7772173 
  816000    2.6270688   -1.7801966  0.012564286   -1.7676323 
  817000    2.6716541   -1.7853724  0.012777521   -1.7725949 
  818000    2.5441032   -1.7821521  0.012167492   -1.7699846 
  819000    2.6864283   -1.7856754   0.01284818   -1.7728272 
  820000    2.1895262   -1.7851407  0.010471683    -1.774669 
  821000    2.3157817    -1.780552  0.011075516   -1.7694765 
  822000    2.8462702   -1.7888532  0.013612644   -1.7752405 
  823000    1.9438637   -1.7899351 0.0092967719   -1.7806383 
  824000    1.8397395   -1.7901941 0.0087987846   -1.7813953 
  825000    1.9819662   -1.7889367  0.009479002   -1.7794577 
  826000    2.1430023   -1.7881806  0.010249177   -1.7779314 
  827000    1.6743724   -1.7928306 0.0080078961   -1.7848227 
  828000    1.5628503   -1.7869354 0.0074745273   -1.7794609 
  829000    1.8070738   -1.7868657 0.0086425571   -1.7782232 
  830000    2.4018672   -1.7868251  0.011487231   -1.7753379 
  831000    2.9394295   -1.7826909   0.01405819   -1.7686327 
  832000    2.2677954   -1.7868129  0.010846016   -1.7759668 
  833000     2.667901   -1.7848661  0.012759571   -1.7721065 
  834000    1.9965057   -1.7831096 0.0095485388    -1.773561 
  835000    2.4078082   -1.7878074  0.011515644   -1.7762917 
  836000    2.5703785   -1.7862908  0.012293157   -1.7739977 
  837000    2.4035091   -1.7832879  0.011495084   -1.7717928 
  838000     3.001215   -1.7874213  0.014353687   -1.7730677 
  839000    2.0886392   -1.7872002 0.0099891787   -1.7772111 
  840000    1.7203563   -1.7875535 0.0082278199   -1.7793257 
  841000    1.5499692   -1.7886899 0.0074129221    -1.781277 
  842000    2.1736629   -1.7859504  0.010395815   -1.7755546 
  843000    1.8097677   -1.7888651  0.008655441   -1.7802096 
  844000     1.752132   -1.7868974 0.0083797912   -1.7785176 
  845000    1.9713975   -1.7883898 0.0094284556   -1.7789614 
  846000    2.0165287   -1.7890277 0.0096443014   -1.7793834 
  847000    2.2953603   -1.7861743  0.010977849   -1.7751964 
  848000    1.9750134   -1.7852627  0.009445749    -1.775817 
  849000    2.5569411   -1.7850869  0.012228891    -1.772858 
  850000    2.7235298   -1.7867951  0.013025623   -1.7737694 
  851000    2.3382747   -1.7867711  0.011183092    -1.775588 
  852000    2.9367783   -1.7860218   0.01404551   -1.7719763 
  853000    2.3733854   -1.7847834  0.011351013   -1.7734324 
  854000     2.810379   -1.7819443   0.01344099   -1.7685033 
  855000    2.4325295   -1.7835473  0.011633877   -1.7719134 
  856000    3.1345998    -1.785772  0.014991617   -1.7707804 
  857000    2.3681887   -1.7828612  0.011326159   -1.7715351 
  858000    3.7445032   -1.7784052  0.017908556   -1.7604967 
  859000    3.0406411   -1.7773554  0.014542247   -1.7628132 
  860000    3.0975245   -1.7771475  0.014814299   -1.7623332 
  861000     4.543385   -1.7808188  0.021729308   -1.7590895 
  862000    4.2412156   -1.7805572  0.020284145    -1.760273 
  863000    4.1539344   -1.7764391  0.019866712   -1.7565724 
  864000    4.6819951   -1.7835724  0.022392229   -1.7611801 
  865000    3.8927844   -1.7843363  0.018617729   -1.7657185 
  866000    3.0512898   -1.7823041  0.014593176   -1.7677109 
  867000    3.3332873   -1.7832358  0.015941864   -1.7672939 
  868000    3.4028557   -1.7794153  0.016274584   -1.7631408 
  869000    3.2894311    -1.780889  0.015732116   -1.7651569 
  870000    4.0935568   -1.7812065  0.019577949   -1.7616286 
  871000    3.5884835   -1.7794071  0.017162372   -1.7622447 
  872000    3.0716005   -1.7789864  0.014690314   -1.7642961 
  873000    3.0757845   -1.7800118  0.014710325   -1.7653015 
  874000    3.8361012   -1.7821716  0.018346635   -1.7638249 
  875000    4.0524745   -1.7795923  0.019381467   -1.7602108 
  876000    2.9881526   -1.7723933  0.014291215   -1.7581021 
  877000    3.0889113   -1.7827102  0.014773106   -1.7679371 
  878000    2.9168254   -1.7814932  0.013950083   -1.7675431 
  879000    3.4657908   -1.7807636  0.016575579    -1.764188 
  880000    3.0881647   -1.7761952  0.014769535   -1.7614256 
  881000    2.9911052   -1.7763452  0.014305336   -1.7620399 
  882000    4.0815841   -1.7828551  0.019520688   -1.7633344 
  883000    3.8698723    -1.782786  0.018508149   -1.7642778 
  884000    2.5272372     -1.78393  0.012086829   -1.7718432 
  885000    2.9907463   -1.7818965  0.014303619   -1.7675929 
  886000    2.3165576   -1.7866913  0.011079227   -1.7756121 
  887000    2.8446002   -1.7840918  0.013604657   -1.7704871 
  888000    3.1390529   -1.7877117  0.015012914   -1.7726988 
  889000     1.925375   -1.7869931 0.0092083473   -1.7777847 
  890000    1.6382993   -1.7899856 0.0078353719   -1.7821503 
  891000    1.9096467   -1.7893642 0.0091331249   -1.7802311 
  892000    2.2173384   -1.7828274  0.010604699   -1.7722227 
  893000    2.6422389   -1.7841644  0.012636839   -1.7715276 
  894000    2.2287555   -1.7889931  0.010659302   -1.7783338 
  895000    2.4651148    -1.783085  0.011789721   -1.7712953 
  896000    2.3367313   -1.7846084   0.01117571   -1.7734327 
  897000     3.829226   -1.7745395  0.018313753   -1.7562257 
  898000     4.490886   -1.7773776  0.021478225   -1.7558993 
  899000    3.7768569    -1.776891  0.018063291   -1.7588278 
  900000    3.6416049   -1.7775109  0.017416432   -1.7600945 
  901000    4.0574261   -1.7766206  0.019405149   -1.7572154 
  902000    2.7957776   -1.7812495  0.013371157   -1.7678784 
  903000    2.0922225   -1.7832503  0.010006316    -1.773244 
  904000    2.6543103   -1.7835709  0.012694572   -1.7708763 
  905000    2.3139713    -1.782679  0.011066858   -1.7716121 
  906000    2.2252364   -1.7820813  0.010642472   -1.7714388 
  907000    2.1091675   -1.7798562  0.010087358   -1.7697688 
  908000     3.070409   -1.7844289  0.014684616   -1.7697443 
  909000    1.6911521   -1.7823302 0.0080881469   -1.7742421 
  910000    2.4470973   -1.7847881   0.01170355   -1.7730846 
  911000    2.4318164   -1.7847137  0.011630467   -1.7730832 
  912000    2.4974131   -1.7832098  0.011944191   -1.7712656 
  913000    2.4250605   -1.7847369  0.011598156   -1.7731387 
  914000    2.6210831   -1.7865648  0.012535659   -1.7740292 
  915000    2.8108402   -1.7838668  0.013443196   -1.7704236 
  916000    2.6761552   -1.7821496  0.012799048   -1.7693506 
  917000    3.0144202   -1.7859757  0.014416843   -1.7715589 
  918000    2.1562639   -1.7870532  0.010312603   -1.7767406 
  919000    2.7737205   -1.7876047  0.013265666    -1.774339 
  920000    2.6650531   -1.7856142  0.012745951   -1.7728683 
  921000    2.9140261   -1.7828921  0.013936695   -1.7689554 
  922000    2.8494305   -1.7844849  0.013627759   -1.7708571 
  923000     2.472925   -1.7862039  0.011827074   -1.7743768 
  924000     3.526544   -1.7860701  0.016866139   -1.7692039 
  925000    2.1665225   -1.7825777  0.010361666   -1.7722161 
  926000    2.7801019   -1.7840296  0.013296186   -1.7707335 
  927000    3.1301245   -1.7825955  0.014970213   -1.7676253 
  928000    2.0328244   -1.7834065 0.0097222377   -1.7736842 
  929000     2.616034   -1.7856236   0.01251151   -1.7731121 
  930000    1.9494225    -1.782776 0.0093233573   -1.7734526 
  931000     2.464898   -1.7871795  0.011788684   -1.7753908 
  932000    2.5492456   -1.7842353  0.012192087   -1.7720432 
  933000    2.7545521   -1.7845593  0.013173991   -1.7713853 
  934000    2.2762791    -1.785673   0.01088659   -1.7747864 
  935000    2.8403818   -1.7858012  0.013584482   -1.7722168 
  936000    2.1608552   -1.7875673  0.010334561   -1.7772328 
  937000    2.1696091   -1.7879412  0.010376427   -1.7775647 
  938000    2.9780207   -1.7844402  0.014242757   -1.7701974 
  939000    2.8103621    -1.784459  0.013440909   -1.7710181 
  940000    2.4115643   -1.7804583  0.011533608   -1.7689247 
  941000    2.2879408   -1.7829051  0.010942364   -1.7719627 
  942000    2.6528209   -1.7831911  0.012687448   -1.7705036 
  943000    2.1795227   -1.7845775  0.010423841   -1.7741536 
  944000    2.7385114   -1.7852689  0.013097274   -1.7721716 
  945000    2.0799636   -1.7846061 0.0099476865   -1.7746584 
  946000    2.6912647   -1.7848804  0.012871311   -1.7720091 
  947000    2.8380354   -1.7873222   0.01357326    -1.773749 
  948000    2.3614653    -1.786501  0.011294004    -1.775207 
  949000    2.4316602   -1.7870157   0.01162972    -1.775386 
  950000    2.6628733   -1.7863438  0.012735526   -1.7736083 
  951000     2.762442   -1.7845415  0.013211725   -1.7713298 
  952000    2.4695569   -1.7872915  0.011810965   -1.7754805 
  953000    2.4376436   -1.7877619  0.011658336   -1.7761036 
  954000    3.1546825   -1.7874863  0.015087665   -1.7723986 
  955000    2.2636776   -1.7855933  0.010826322    -1.774767 
  956000     3.523123   -1.7839385  0.016849778   -1.7670887 
  957000    2.5299822   -1.7871159  0.012099957   -1.7750159 
  958000    2.7557266   -1.7869219  0.013179608   -1.7737423 
  959000    2.9535658   -1.7880663  0.014125799   -1.7739405 
  960000    2.0047666   -1.7866916 0.0095880474   -1.7771035 
  961000    2.3809125   -1.7908297  0.011387013   -1.7794427 
  962000     1.963081   -1.7863291 0.0093886812   -1.7769404 
  963000    1.9537833   -1.7886457 0.0093442137   -1.7793015 
  964000     2.141399   -1.7901166  0.010241509   -1.7798751 
  965000    1.4013315   -1.7876118 0.0067020437   -1.7809097 
  966000    1.7929145   -1.7873341 0.0085748382   -1.7787592 
  967000    2.1053024   -1.7910343  0.010068873   -1.7809655 
  968000    1.9795151   -1.7872855 0.0094672794   -1.7778182 
  969000    1.8362026   -1.7901403 0.0087818693   -1.7813584 
  970000    2.2717255   -1.7897235  0.010864812   -1.7788587 
  971000    1.1888276    -1.789718 0.0056857169   -1.7840323 
  972000    2.3182695   -1.7890113  0.011087414   -1.7779238 
  973000    1.7205224   -1.7880143 0.0082286141   -1.7797857 
  974000    2.3135054   -1.7879403   0.01106463   -1.7768757 
  975000    1.7714594   -1.7914698 0.0084722266   -1.7829976 
  976000    1.9782903   -1.7886357 0.0094614212   -1.7791742 
  977000    2.5242575   -1.7864967  0.012072578   -1.7744241 
  978000    1.7780578   -1.7885332 0.0085037843   -1.7800294 
  979000    1.9064552   -1.7892918  0.009117861    -1.780174 
  980000    2.3557414   -1.7880814  0.011266629   -1.7768147 
  981000    2.2538642   -1.7902158  0.010779388   -1.7794364 
  982000    1.8144986   -1.7872755 0.0086780669   -1.7785974 
  983000    1.8199308   -1.7862345 0.0087040474   -1.7775305 
  984000     1.757455   -1.7916387 0.0084052489   -1.7832335 
  985000    2.2465369   -1.7873506  0.010744344   -1.7766062 
  986000     1.966808   -1.7878082 0.0094065059   -1.7784016 
  987000    1.7830495   -1.7883219 0.0085276578   -1.7797942 
  988000    1.9172043     -1.78882 0.0091692699   -1.7796507 
  989000    1.7822745   -1.7862835  0.008523951   -1.7777595 
  990000    2.0962738    -1.790477  0.010025692   -1.7804513 
  991000    2.6289311   -1.7849116  0.012573192   -1.7723384 
  992000    2.4541894    -1.785673  0.011737469   -1.7739355 
  993000    2.1244015   -1.7879848  0.010160217   -1.7778246 
  994000    2.8474146   -1.7833695  0.013618117   -1.7697514 
  995000    2.0780048   -1.7866913 0.0099383186    -1.776753 
  996000    2.3710281   -1.7843919  0.011339739   -1.7730522 
  997000    2.5713468   -1.7824149  0.012297788   -1.7701171 
  998000    2.1579916   -1.7839839  0.010320865    -1.773663 
  999000    3.3049214   -1.7894493  0.015806201   -1.7736431 
 1000000    2.1655125   -1.7862432  0.010356835   -1.7758863 
 1001000    2.0352655    -1.790165 0.0097339122    -1.780431 
 1002000    2.4633175   -1.7882493  0.011781125   -1.7764682 
 1003000    1.9049049   -1.7831638 0.0091104463   -1.7740534 
 1004000    2.3834684    -1.789512  0.011399236   -1.7781128 
 1005000     1.799851   -1.7886859 0.0086080132   -1.7800778 
 1006000    2.2957299   -1.7902681  0.010979616   -1.7792885 
 1007000    1.6276788   -1.7922364 0.0077845779   -1.7844519 
 1008000    2.0343965   -1.7897632 0.0097297563   -1.7800334 
 1009000     1.587501   -1.7901426 0.0075924228   -1.7825502 
 1010000    1.9012813   -1.7896216 0.0090931163   -1.7805285 
 1011000     1.795681   -1.7860611 0.0085880695    -1.777473 
 1012000    1.9391598   -1.7897677 0.0092742747   -1.7804934 
 1013000    2.0716616   -1.7914289 0.0099079811   -1.7815209 
 1014000    1.7977706   -1.7906046 0.0085980631   -1.7820065 
 1015000    2.0314631   -1.7893862 0.0097157268   -1.7796705 
 1016000     2.036225   -1.7887616 0.0097385016   -1.7790231 
 1017000    1.8183146   -1.7866592 0.0086963174   -1.7779628 
 1018000    2.2753638    -1.789482  0.010882213   -1.7785997 
 1019000    1.8052875   -1.7904821 0.0086340138   -1.7818481 
 1020000    2.1347312   -1.7854923   0.01020962   -1.7752827 
 1021000     2.280653   -1.7866725  0.010907509    -1.775765 
 1022000    2.9474699   -1.7869848  0.014096644   -1.7728882 
 1023000     2.513061   -1.7856559  0.012019029   -1.7736369 
 1024000    2.3382678   -1.7824836  0.011183059   -1.7713005 
 1025000    2.2343183   -1.7867121  0.010685907   -1.7760262 
 1026000    1.7079893   -1.7860457 0.0081686731    -1.777877 
 1027000    2.0824928   -1.7856332 0.0099597828   -1.7756734 
 1028000    2.0835072   -1.7853042 0.0099646344   -1.7753396 
 1029000    2.7262693   -1.7831052  0.013038725   -1.7700664 
 1030000    2.5358368   -1.7829724  0.012127957   -1.7708444 
 1031000    2.6295429   -1.7887904  0.012576119   -1.7762143 
 1032000     2.549853   -1.7847985  0.012194992   -1.7726035 
 1033000     2.328321   -1.7832716  0.011135487   -1.7721361 
 1034000    2.9503075   -1.7841835  0.014110215   -1.7700733 
 1035000    2.5513381   -1.7833651  0.012202094    -1.771163 
 1036000    2.9622426   -1.7861973  0.014167296     -1.77203 
 1037000    2.0839692   -1.7894153 0.0099668437   -1.7794485 
 1038000    1.8062674    -1.787549 0.0086387003   -1.7789103 
 1039000    2.3869934   -1.7907293  0.011416095   -1.7793132 
 1040000    1.8690587   -1.7871583 0.0089390074   -1.7782193 
 1041000    1.9355024   -1.7872655 0.0092567827   -1.7780087 
 1042000    3.4146301    -1.784078  0.016330897   -1.7677471 
 1043000    2.1386232   -1.7878469  0.010228234   -1.7776187 
 1044000    1.9329898   -1.7844577 0.0092447659   -1.7752129 
 1045000     3.161164   -1.7830549  0.015118663   -1.7679362 
 1046000    2.9213839   -1.7805336  0.013971885   -1.7665617 
 1047000    2.6800363   -1.7912732   0.01281761   -1.7784556 
 1048000    2.5418987   -1.7852904  0.012156949   -1.7731335 
 1049000    3.0678028   -1.7861953  0.014672152   -1.7715232 
 1050000    2.6319592   -1.7809157  0.012587675    -1.768328 
 1051000    2.5744754   -1.7863793  0.012312751   -1.7740665 
 1052000    2.2004927   -1.7860472  0.010524132   -1.7755231 
 1053000    1.4457359   -1.7891888 0.0069144132   -1.7822744 
 1054000    2.0058043   -1.7858764 0.0095930104   -1.7762834 
 1055000    1.6717416   -1.7900673 0.0079953137    -1.782072 
 1056000    2.7109195   -1.7836209  0.012965312   -1.7706556 
 1057000    1.8851835   -1.7888054 0.0090161265   -1.7797892 
 1058000    1.7388978   -1.7884473 0.0083164966   -1.7801308 
 1059000     1.765302   -1.7922165 0.0084427781   -1.7837737 
 1060000    1.5368168   -1.7890925 0.0073500191   -1.7817425 
 1061000    1.7688135    -1.786848 0.0084595723   -1.7783885 
 1062000    2.3459162   -1.7851734  0.011219638   -1.7739537 
 1063000    2.0453494   -1.7894331   0.00978214   -1.7796509 
 1064000     1.603692   -1.7897423 0.0076698579   -1.7820724 
 1065000    1.6859757   -1.7912669   0.00806339   -1.7832035 
 1066000    2.0749807   -1.7867475 0.0099238552   -1.7768237 
 1067000    1.6697398   -1.7906187 0.0079857401    -1.782633 
 1068000    2.8809585   -1.7880427  0.013778545   -1.7742641 
 1069000    2.6193258   -1.7865004  0.012527254   -1.7739731 
 1070000    1.8158642   -1.7863837  0.008684598   -1.7776991 
 1071000    2.7750843   -1.7835174  0.013272189   -1.7702452 
 1072000     3.215064   -1.7822207  0.015376446   -1.7668442 
 1073000    2.6240701   -1.7839483  0.012549944   -1.7713983 
 1074000    3.1045522   -1.7855807   0.01484791   -1.7707327 
 1075000    2.5629636    -1.786031  0.012257695   -1.7737733 
 1076000    2.4898426   -1.7870181  0.011907985   -1.7751101 
 1077000    2.0828706   -1.7815233 0.0099615897   -1.7715617 
 1078000    2.6159384   -1.7823664  0.012511053   -1.7698554 
 1079000    4.0049384   -1.7785847   0.01915412   -1.7594306 
 1080000    3.2568332   -1.7812668  0.015576213   -1.7656905 
 1081000    3.5340588   -1.7762394  0.016902079   -1.7593374 
 1082000    3.6655199   -1.7794728  0.017530808    -1.761942 
 1083000    3.0451252   -1.7792938  0.014563693   -1.7647301 
 1084000    3.6130078    -1.779845  0.017279663   -1.7625654 
 1085000    3.4043911    -1.779601  0.016281927    -1.763319 
 1086000    3.9739801   -1.7829258  0.019006058   -1.7639197 
 1087000    3.2211191   -1.7773984  0.015405406   -1.7619929 
 1088000    3.8211664   -1.7835957  0.018275207   -1.7653205 
 1089000     2.293632    -1.784326  0.010969583   -1.7733565 
 1090000    2.4147255   -1.7870408  0.011548728   -1.7754921 
 1091000     1.936569   -1.7882686 0.0092618839   -1.7790068 
 1092000    1.5999529   -1.7871552 0.0076519753   -1.7795033 
 1093000    2.6562853   -1.7856412  0.012704017   -1.7729372 
 1094000    1.7189314   -1.7844043  0.008221005   -1.7761833 
 1095000    2.8364293   -1.7844665  0.013565579    -1.770901 
 1096000    2.7726078   -1.7899192  0.013260344   -1.7766589 
 1097000    2.4922691   -1.7835666  0.011919589   -1.7716471 
 1098000    3.9637569   -1.7776139  0.018957164   -1.7586568 
 1099000    4.2345028   -1.7724543  0.020252041   -1.7522022 
 1100000    3.5633174   -1.7804951  0.017042012   -1.7634531 
 1101000    2.7600261   -1.7791848  0.013200171   -1.7659847 
 1102000    3.2120552   -1.7766927  0.015362056   -1.7613307 
 1103000    3.4428499   -1.7735651  0.016465861   -1.7570992 
 1104000    3.8251512   -1.7762729  0.018294265   -1.7579786 
 1105000    3.3691837   -1.7812842  0.016113543   -1.7651707 
 1106000    3.2710386   -1.7823128  0.015644152   -1.7666686 
 1107000    3.4708761    -1.779829    0.0165999   -1.7632291 
 1108000    3.8908669   -1.7747341  0.018608559   -1.7561255 
 1109000    3.8444289   -1.7795682  0.018386463   -1.7611818 
 1110000    2.9515375   -1.7760585  0.014116098   -1.7619424 
 1111000    3.2843641   -1.7830434  0.015707883   -1.7673355 
 1112000    4.1075464   -1.7815895  0.019644856   -1.7619447 
 1113000    2.7643396   -1.7732131  0.013220801   -1.7599923 
 1114000    3.4336013   -1.7809759  0.016421629   -1.7645542 
 1115000    3.4521614   -1.7837269  0.016510395   -1.7672165 
 1116000    3.5282199   -1.7802505  0.016874154   -1.7633763 
 1117000    4.1305855   -1.7822489  0.019755043   -1.7624939 
 1118000    2.3891973   -1.7830148  0.011426636   -1.7715881 
 1119000    2.3436709   -1.7840668    0.0112089   -1.7728579 
 1120000    2.5420557   -1.7850641    0.0121577   -1.7729064 
 1121000     3.242923   -1.7850737  0.015509686    -1.769564 
 1122000    2.4750127   -1.7856332  0.011837059   -1.7737961 
 1123000    2.4945529   -1.7810439  0.011930512   -1.7691134 
 1124000    2.8265837    -1.785201  0.013518491   -1.7716825 
 1125000     2.500299    -1.783953  0.011957994    -1.771995 
 1126000     2.747737   -1.7847307  0.013141396   -1.7715893 
 1127000    2.7272192   -1.7839828  0.013043267   -1.7709395 
 1128000    2.6444611   -1.7853805  0.012647467    -1.772733 
 1129000    2.7660514   -1.7817049  0.013228988    -1.768476 
 1130000    2.3369086   -1.7821392  0.011176559   -1.7709627 
 1131000    2.9467835   -1.7877383  0.014093361    -1.773645 
 1132000     2.454833   -1.7862557  0.011740546   -1.7745151 
 1133000    3.6202515   -1.7853017  0.017314307   -1.7679873 
 1134000    2.4064235   -1.7822647  0.011509022   -1.7707557 
 1135000    2.4975914   -1.7845026  0.011945044   -1.7725576 
 1136000    2.4026298   -1.7870767  0.011490878   -1.7755858 
 1137000    3.2016168   -1.7869692  0.015312134   -1.7716571 
 1138000    2.7897171   -1.7839978  0.013342172   -1.7706556 
 1139000    2.5908161   -1.7862678  0.012390903   -1.7738769 
 1140000    3.1432472   -1.7807934  0.015032974   -1.7657605 
 1141000    3.4528395   -1.7868632  0.016513638   -1.7703496 
 1142000    2.8870359   -1.7874972  0.013807611   -1.7736896 
 1143000    2.1984172    -1.783567  0.010514206   -1.7730527 
 1144000    2.8988172    -1.784761  0.013863957   -1.7708971 
 1145000    3.2281819   -1.7794898  0.015439185   -1.7640506 
 1146000    3.1155504   -1.7793267   0.01490051   -1.7644262 
 1147000    3.8609715   -1.7790117   0.01846558   -1.7605462 
 1148000    3.7909308    -1.778093  0.018130602   -1.7599624 
 1149000    3.1495469   -1.7808626  0.015063103   -1.7657995 
 1150000    3.8217308   -1.7815436  0.018277907   -1.7632657 
 1151000    3.2867777   -1.7752307  0.015719426   -1.7595113 
 1152000     4.113725   -1.7762902  0.019674406   -1.7566158 
 1153000    3.9133779   -1.7810838   0.01871622   -1.7623675 
 1154000    3.3432572   -1.7805443  0.015989547   -1.7645548 
 1155000    2.6137523   -1.7850505  0.012500598   -1.7725499 
 1156000    2.3022083   -1.7818031    0.0110106   -1.7707925 
 1157000    2.4994896   -1.7835383  0.011954122   -1.7715842 
 1158000    2.2389648   -1.7841647   0.01070813   -1.7734565 
 1159000    2.1459867   -1.7868054  0.010263451   -1.7765419 
 1160000    3.0955268   -1.7835324  0.014804745   -1.7687277 
 1161000    2.2409737    -1.789878  0.010717738   -1.7791603 
 1162000    2.7842525    -1.785232  0.013316037    -1.771916 
 1163000    2.4624442   -1.7844518  0.011776948   -1.7726749 
 1164000    2.9247123   -1.7839644  0.013987803   -1.7699766 
 1165000    2.7998636   -1.7864281  0.013390699   -1.7730374 
 1166000    1.7607564   -1.7883077 0.0084210382   -1.7798867 
 1167000    1.9744754   -1.7911216 0.0094431759   -1.7816784 
 1168000    1.8805793   -1.7882321 0.0089941062    -1.779238 
 1169000    1.9325774   -1.7870937 0.0092427938   -1.7778509 
 1170000    1.7067916   -1.7864388 0.0081629448   -1.7782758 
 1171000    1.8230312   -1.7884627 0.0087188751   -1.7797438 
 1172000    1.9038388   -1.7913868 0.0091053475   -1.7822815 
 1173000     2.146535   -1.7869092  0.010266073   -1.7766431 
 1174000    2.2499616   -1.7897967  0.010760723    -1.779036 
 1175000    1.4639207   -1.7896704 0.0070013841    -1.782669 
 1176000    2.3848007    -1.787778  0.011405608   -1.7763724 
 1177000    2.0568941   -1.7910137 0.0098373541   -1.7811764 
 1178000    1.8898713   -1.7916218 0.0090385465   -1.7825833 
 1179000    1.8966915   -1.7900049 0.0090711647   -1.7809338 
 1180000     2.437723   -1.7907973  0.011658716   -1.7791386 
 1181000    1.8691467   -1.7851684 0.0089394284   -1.7762289 
 1182000    2.9432319   -1.7842273  0.014076376   -1.7701509 
 1183000    1.9586299   -1.7846091 0.0093673931   -1.7752417 
 1184000     3.310778   -1.7850704  0.015834211   -1.7692362 
 1185000    2.6129792   -1.7832891  0.012496901   -1.7707922 
 1186000    2.0804827   -1.7802051 0.0099501693    -1.770255 
 1187000    3.1969133   -1.7824601  0.015289639   -1.7671704 
 1188000    2.2252597   -1.7858257  0.010642584   -1.7751831 
 1189000    3.2660651   -1.7842724  0.015620366    -1.768652 
 1190000    2.3414714   -1.7856747  0.011198381   -1.7744763 
 1191000    2.9225732   -1.7831087  0.013977573   -1.7691312 
 1192000    2.8671715   -1.7856481  0.013712607   -1.7719355 
 1193000     1.998013   -1.7808769 0.0095557476   -1.7713211 
 1194000    2.6925388   -1.7836861  0.012877405   -1.7708087 
 1195000     3.765706    -1.778381  0.018009961    -1.760371 
 1196000    3.6948174   -1.7817832  0.017670927   -1.7641123 
 1197000    3.2950328   -1.7802386  0.015758908   -1.7644797 
 1198000    4.2651134   -1.7807136  0.020398439   -1.7603151 
 1199000    4.4002975   -1.7770373  0.021044974   -1.7559923 
 1200000    3.5256748   -1.7809112  0.016861981   -1.7640493 
 1201000    4.4507982   -1.7778864    0.0212865   -1.7565999 
 1202000    3.1171844    -1.778735  0.014908325   -1.7638267 
 1203000    3.7158434   -1.7741058  0.017771487   -1.7563344 
 1204000    4.2818732   -1.7823167  0.020478595   -1.7618381 
 1205000    3.1486192    -1.776964  0.015058666   -1.7619054 
 1206000    4.5641378     -1.76627  0.021828561   -1.7444414 
 1207000    5.3103575   -1.7709919   0.02539745   -1.7455944 
 1208000    5.0271833   -1.7707241  0.024043134   -1.7466809 
 1209000     6.016171   -1.7584267  0.028773092   -1.7296536 
 1210000    6.9133134   -1.7628089  0.033063788   -1.7297451 
 1211000    4.6403677    -1.771886   0.02219314   -1.7496929 
 1212000    6.5796997   -1.7545889  0.031468239   -1.7231207 
 1213000    9.2661447   -1.7440788  0.044316499   -1.6997623 
 1214000    9.5428427   -1.7450015  0.045639841   -1.6993616 
 1215000    9.9568226   -1.7542349  0.047619753   -1.7066151 
 1216000    7.7278774   -1.7394727  0.036959542   -1.7025132 
 1217000    8.0423033   -1.7477048  0.038463324   -1.7092414 
 1218000    11.211262   -1.7468833  0.053619268    -1.693264 
 1219000    7.7176269   -1.7472269  0.036910518   -1.7103164 
 1220000     8.430877   -1.7418843  0.040321726   -1.7015626 
 1221000    10.396767   -1.7539787  0.049723841   -1.7042548 
 1222000     8.385277   -1.7322823  0.040103638   -1.6921787 
 1223000     10.60969   -1.7068982   0.05074217    -1.656156 
 1224000    14.133835   -1.7184619  0.067596838   -1.6508651 
 1225000    11.586529   -1.7473843  0.055414029   -1.6919702 
 1226000    15.811792   -1.7327768  0.075621877   -1.6571549 
 1227000    11.255785   -1.7203953  0.053832205   -1.6665631 
 1228000     9.369913   -1.7234379  0.044812783   -1.6786251 
 1229000    10.613808   -1.7332655  0.050761868   -1.6825036 
 1230000    11.292927    -1.732075   0.05400984   -1.6780651 
 1231000    10.616716   -1.7311368  0.050775776    -1.680361 
 1232000     8.543163   -1.7263885  0.040858748   -1.6855298 
 1233000    11.633885   -1.7441532  0.055640516   -1.6885127 
 1234000    15.494644   -1.7214608  0.074105075   -1.6473557 
 1235000    14.388958   -1.7374647  0.068816996   -1.6686477 
 1236000    12.414375   -1.7341972  0.059373305   -1.6748239 
 1237000    11.078225   -1.7239073  0.052982998   -1.6709243 
 1238000    10.062441   -1.7328304  0.048124888   -1.6847055 
 1239000    12.519232   -1.7199455  0.059874797   -1.6600707 
 1240000    9.5408955   -1.7427419  0.045630529   -1.6971113 
 1241000    13.257566   -1.7145611  0.063405973   -1.6511552 
 1242000    11.765229   -1.7388131  0.056268681   -1.6825444 
 1243000    9.9722797   -1.7395775  0.047693678   -1.6918838 
 1244000    12.800225   -1.7232315  0.061218679   -1.6620128 
 1245000    12.033654   -1.7258992  0.057552457   -1.6683468 
 1246000    12.548302   -1.7296934  0.060013829   -1.6696796 
 1247000    12.751517   -1.7327757  0.060985729     -1.67179 
 1248000    13.798844   -1.7245873  0.065994699   -1.6585926 
 1249000     12.64994   -1.7406598  0.060499925   -1.6801599 
 1250000     7.676862   -1.7446683  0.036715555   -1.7079528 
 1251000    9.3986896   -1.7420517  0.044950411   -1.6971012 
 1252000    11.018733   -1.7521829   0.05269847   -1.6994844 
 1253000    9.5004052   -1.7465696  0.045436879   -1.7011327 
 1254000    7.4974566   -1.7478156  0.035857526   -1.7119581 
 1255000    8.4773895   -1.7553069  0.040544178   -1.7147627 
 1256000    9.8501919   -1.7514068  0.047109778    -1.704297 
 1257000     9.010332   -1.7412646  0.043093042   -1.6981715 
 1258000     8.337236   -1.7375228  0.039873876   -1.6976489 
 1259000    11.421631   -1.7302915  0.054625381   -1.6756661 
 1260000    12.006917   -1.7372948  0.057424584   -1.6798702 
 1261000    12.500591   -1.7267498  0.059785642   -1.6669642 
 1262000    12.583958   -1.7410622  0.060184358   -1.6808779 
 1263000    10.764253   -1.7279547  0.051481389   -1.6764733 
 1264000    12.699529   -1.7328539  0.060737092   -1.6721168 
 1265000     16.07281   -1.7346064  0.076870229   -1.6577362 
 1266000    9.9476441   -1.7282168  0.047575855   -1.6806409 
 1267000    16.730604   -1.7304401  0.080016211   -1.6504239 
 1268000    11.200887   -1.7459711  0.053569646   -1.6924015 
 1269000    11.192328   -1.7219958  0.053528712   -1.6684671 
 1270000    9.8713617   -1.7282791  0.047211025   -1.6810681 
 1271000    9.0285665   -1.7300854  0.043180251   -1.6869052 
 1272000     12.95771   -1.7338404  0.061971875   -1.6718685 
 1273000    10.952947   -1.7034413  0.052383841   -1.6510574 
 1274000    14.142556   -1.7417049  0.067638545   -1.6740664 
[...]
 4706000    10.308635   -1.7388698  0.049302339   -1.6895674 
 4707000    8.9265715   -1.7381916  0.042692447   -1.6954992 
 4708000    7.8936342   -1.7497391  0.037752295   -1.7119868 
 4709000     9.740074   -1.7455803  0.046583125   -1.6989972 
 4710000    12.817835   -1.7148114  0.061302904   -1.6535085 
 4711000    9.2939415   -1.7375746   0.04444944   -1.6931252 
 4712000    10.094598   -1.7349072  0.048278682   -1.6866285 
 4713000    15.402972    -1.724533  0.073666645   -1.6508664 
 4714000    11.495082   -1.7356626  0.054976672   -1.6806859 
 4715000    10.750359   -1.7197671  0.051414938   -1.6683522 
 4716000    13.043798   -1.7343362  0.062383598   -1.6719527 
 4717000    10.751706   -1.7279377  0.051421381   -1.6765163 
 4718000    10.038346   -1.7467599  0.048009649   -1.6987503 
 4719000    13.290186   -1.7207693  0.063561979   -1.6572073 
 4720000    12.872904   -1.7400666  0.061566277   -1.6785003 
 4721000    10.649211    -1.735315  0.050931184   -1.6843838 
 4722000    12.031684   -1.7254782  0.057543035   -1.6679351 
 4723000     11.09667   -1.7362834  0.053071217   -1.6832122 
 4724000    12.252909   -1.7340849  0.058601071   -1.6754838 
 4725000    10.463357   -1.7381104  0.050042314   -1.6880681 
 4726000    15.588855    -1.721477  0.074555652   -1.6469214 
 4727000     11.54317   -1.7303131  0.055206657   -1.6751064 
 4728000    11.233001   -1.7394594  0.053723236   -1.6857361 
 4729000    12.789823   -1.7147405  0.061168934   -1.6535716 
 4730000    10.891889   -1.7412212  0.052091824   -1.6891294 
 4731000    12.425139   -1.7386338  0.059424783    -1.679209 
 4732000     10.80693   -1.7384002  0.051685497   -1.6867147 
 4733000    12.650644   -1.7105253  0.060503291    -1.650022 
 4734000    14.441537   -1.7289917  0.069068459   -1.6599233 
 4735000     11.71452   -1.7418277  0.056026161   -1.6858015 
 4736000    11.600469   -1.7171075  0.055480698   -1.6616269 
 4737000    10.959196   -1.7402676   0.05241373   -1.6878539 
 4738000    7.7671194   -1.7473067  0.037147222   -1.7101594 
 4739000    7.3573757   -1.7576656  0.035187572   -1.7224781 
 4740000     9.693553   -1.7332994  0.046360632   -1.6869388 
 4741000    8.5132562   -1.7511989  0.040715715   -1.7104832 
 4742000     9.367792   -1.7564531   0.04480264   -1.7116505 
 4743000    7.7420689   -1.7510624  0.037027415    -1.714035 
 4744000    7.7054985   -1.7437913  0.036852513   -1.7069388 
 4745000    9.4870556   -1.7464919  0.045373033   -1.7011188 
 4746000    9.6225331   -1.7549308  0.046020971   -1.7089098 
 4747000     8.304175   -1.7361202  0.039715758   -1.6964044 
 4748000    7.9785766   -1.7511175  0.038158543    -1.712959 
 4749000    8.9161709   -1.7433648  0.042642705   -1.7007221 
 4750000    10.377139   -1.7557643  0.049629969   -1.7061343 
 4751000    9.0396472   -1.7421885  0.043233246   -1.6989553 
 4752000    11.359345   -1.7443317  0.054327491   -1.6900042 
 4753000    13.545985   -1.7366141  0.064785369   -1.6718288 
 4754000    11.445041   -1.7239664  0.054737342    -1.669229 
 4755000    10.894339   -1.7398138  0.052103543   -1.6877102 
 4756000    11.952117   -1.7276433  0.057162496   -1.6704808 
 4757000    14.136354   -1.7308311  0.067608884   -1.6632222 
 4758000    13.137871   -1.7279631  0.062833517   -1.6651296 
 4759000     11.91436   -1.7333162  0.056981919   -1.6763343 
 4760000    13.371465   -1.7456028  0.063950707   -1.6816521 
 4761000    9.8260746   -1.7085124  0.046994434    -1.661518 
 4762000    13.055311    -1.735997  0.062438659   -1.6735584 
 4763000    10.810544   -1.7179357  0.051702781   -1.6662329 
 4764000    16.924403   -1.6913695  0.080943077   -1.6104265 
 4765000     22.66773   -1.7167365   0.10841126   -1.6083252 
 4766000    18.455039   -1.7175082  0.088263536   -1.6292446 
 4767000    10.381464    -1.737248  0.049650655   -1.6875973 
 4768000    14.165533    -1.735295  0.067748436   -1.6675465 
 4769000    11.712795   -1.7247489  0.056017909    -1.668731 
 4770000    13.464434    -1.736803  0.064395342   -1.6724077 
 4771000    13.633247   -1.6996754  0.065202712   -1.6344727 
 4772000    9.8485866   -1.7384643    0.0471021   -1.6913622 
 4773000    13.600966   -1.7212534  0.065048325   -1.6562051 
 4774000     10.82791    -1.739022  0.051785837   -1.6872361 
 4775000    13.939874   -1.7215732  0.066669194    -1.654904 
 4776000    10.786557   -1.7282936  0.051588061   -1.6767055 
 4777000    10.719319   -1.7356392  0.051266489   -1.6843727 
 4778000    13.039866   -1.7302489  0.062364796   -1.6678841 
 4779000    12.291884   -1.7273725  0.058787478    -1.668585 
 4780000    12.394557   -1.7383302  0.059278521   -1.6790517 
 4781000    13.704427   -1.7312094  0.065543138   -1.6656662 
 4782000    11.234434   -1.7387232   0.05373009   -1.6849931 
 4783000    8.3404712   -1.7327312  0.039889349   -1.6928418 
 4784000    11.912563   -1.7210335  0.056973326   -1.6640602 
 4785000    11.679586   -1.7336845  0.055859082   -1.6778254 
 4786000    13.550351   -1.7334281  0.064806255   -1.6686219 
 4787000    11.513924   -1.7156783  0.055066783   -1.6606115 
 4788000    12.687423   -1.7181363  0.060679193   -1.6574571 
 4789000    14.221332   -1.7494547  0.068015305   -1.6814394 
 4790000    10.003978   -1.7486601   0.04784528   -1.7008148 
 4791000    10.564471   -1.7462812  0.050525905   -1.6957553 
 4792000    6.2792394   -1.7431316  0.030031249   -1.7131003 
 4793000    9.7562443   -1.7544933  0.046660462   -1.7078328 
 4794000    6.9796764   -1.7592994  0.033381177   -1.7259182 
 4795000    6.7798133   -1.7690648  0.032425307   -1.7366395 
 4796000    7.3323606   -1.7639516  0.035067934   -1.7288836 
 4797000    6.9641771   -1.7674488   0.03330705   -1.7341418 
 4798000    6.3317919   -1.7617598  0.030282588   -1.7314772 
 4799000     5.476292   -1.7607616  0.026191053   -1.7345705 
 4800000    7.2269773   -1.7641857  0.034563925   -1.7296218 
 4801000    7.4620644   -1.7556572  0.035688258   -1.7199689 
 4802000    7.9782518   -1.7626605   0.03815699   -1.7245036 
 4803000    7.7486985   -1.7618921  0.037059122    -1.724833 
 4804000    7.0663901   -1.7606558  0.033795896   -1.7268599 
 4805000    5.7570864   -1.7662556  0.027533987   -1.7387216 
 4806000      4.46612   -1.7739325  0.021359779   -1.7525727 
 4807000      4.42568   -1.7699199  0.021166369   -1.7487536 
 4808000    5.5399187   -1.7752896  0.026495356   -1.7487942 
 4809000    4.5627459   -1.7626076  0.021821904   -1.7407857 
 4810000    8.0564014   -1.7667706  0.038530749   -1.7282399 
 4811000    6.7917409   -1.7560234  0.032482352   -1.7235411 
 4812000     8.251668   -1.7564034  0.039464637   -1.7169387 
 4813000    7.5108476   -1.7393465   0.03592157    -1.703425 
 4814000    10.218718   -1.7441129  0.048872299   -1.6952406 
 4815000    7.6174513   -1.7530112  0.036431416   -1.7165798 
 4816000    6.9992777   -1.7350208  0.033474923   -1.7015458 
 4817000    11.048241   -1.7450567  0.052839598   -1.6922171 
 4818000     10.61751   -1.7438027  0.050779573   -1.6930231 
 4819000    7.8202926   -1.7544447   0.03740153   -1.7170432 
 4820000    10.252396   -1.7477483  0.049033368    -1.698715 
 4821000    10.259886   -1.7362297  0.049069191   -1.6871605 
 4822000    8.7202743   -1.7469969  0.041705805   -1.7052911 
 4823000    10.739244   -1.7579799  0.051361783   -1.7066182 
 4824000    10.581947   -1.7364603  0.050609488   -1.6858508 
 4825000    7.4615297   -1.7365884  0.035685701   -1.7009027 
 4826000     12.81702   -1.7141532  0.061299004   -1.6528542 
 4827000    9.9197701    -1.743877  0.047442544   -1.6964345 
 4828000    14.565251   -1.7342018  0.069660137   -1.6645417 
 4829000    11.828449   -1.7288258  0.056571042   -1.6722547 
 4830000    12.677432   -1.7286274  0.060631408    -1.667996 
 4831000    10.767798   -1.7433108  0.051498342   -1.6918125 
 4832000      11.1757   -1.7238848  0.053449187   -1.6704356 
 4833000    12.304508   -1.7302638   0.05884785   -1.6714159 
 4834000    13.866394   -1.7356973   0.06631777   -1.6693795 
 4835000    12.572599   -1.7449782  0.060130031   -1.6848482 
 4836000    9.7879372   -1.7435619  0.046812037   -1.6967498 
 4837000    9.1307452   -1.7380292  0.043668934   -1.6943602 
 4838000    11.033846   -1.7239878  0.052770752   -1.6712171 
 4839000    14.859126    -1.714953  0.071065631   -1.6438874 
 4840000    13.935703   -1.7311248  0.066649249   -1.6644755 
 4841000    11.198175   -1.7304434  0.053556676   -1.6768867 
 4842000    11.846842   -1.7471038  0.056659006   -1.6904448 
 4843000     8.708371   -1.7134578  0.041648876   -1.6718089 
 4844000    14.592496   -1.7092668  0.069790443   -1.6394763 
 4845000      18.0083   -1.7146998  0.086126953   -1.6285729 
 4846000    17.626078   -1.7226056  0.084298927   -1.6383067 
 4847000    14.653409   -1.6949604  0.070081765   -1.6248786 
 4848000    12.240735   -1.7182738  0.058542851   -1.6597309 
 4849000    15.921396    -1.689797  0.076146075   -1.6136509 
 4850000    12.572694   -1.7174661  0.060130487   -1.6573356 
 4851000    15.893485   -1.6943162  0.076012585   -1.6183037 
 4852000    15.046668   -1.7155445  0.071962576   -1.6435819 
 4853000    19.541571   -1.6944897  0.093460012   -1.6010297 
 4854000    18.287584   -1.6980724  0.087462662   -1.6106097 
 4855000     16.83131   -1.7113376  0.080497852   -1.6308397 
 4856000    18.388972   -1.7096706  0.087947565   -1.6217231 
 4857000    15.347179   -1.7042167  0.073399807   -1.6308169 
 4858000    16.305772   -1.7100451  0.077984399   -1.6320607 
 4859000    18.886507   -1.7141027  0.090327087   -1.6237756 
 4860000    14.136417   -1.7174535  0.067609189   -1.6498443 
 4861000    10.570051   -1.7365807  0.050552593   -1.6860281 
 4862000    10.304733   -1.7432884  0.049283679   -1.6940047 
 4863000    13.083802    -1.743621  0.062574921   -1.6810461 
 4864000    10.338649   -1.7099929  0.049445886    -1.660547 
 4865000    14.910441    -1.700808  0.071311051    -1.629497 
 4866000     15.96151   -1.7212793  0.076337924   -1.6449413 
 4867000     11.85661    -1.744794  0.056705725   -1.6880882 
 4868000    12.146589   -1.7399025  0.058092586   -1.6818099 
 4869000    13.611077   -1.7330885  0.065096683   -1.6679919 
 4870000    13.575013   -1.7218374  0.064924203   -1.6569132 
 4871000    11.403961   -1.7340301  0.054540873   -1.6794892 
 4872000    12.908576   -1.7230408  0.061736881   -1.6613039 
 4873000    12.381252   -1.7170926  0.059214892   -1.6578777 
 4874000    14.598318   -1.7315141  0.069818286   -1.6616958 
 4875000    14.550231   -1.7293759  0.069588304   -1.6597876 
 4876000    12.222006   -1.7374246  0.058453277   -1.6789713 
 4877000     8.651748   -1.7196895  0.041378069   -1.6783114 
 4878000    13.484046   -1.7301235  0.064489141   -1.6656344 
 4879000    10.712348   -1.7217346  0.051233148   -1.6705015 
 4880000    13.949235   -1.7251616  0.066713963   -1.6584476 
 4881000    11.506075   -1.7295867  0.055029246   -1.6745574 
 4882000    11.580432   -1.7334363  0.055384868   -1.6780514 
 4883000    12.206065   -1.7275528  0.058377035   -1.6691758 
 4884000    11.123268   -1.7274619  0.053198424   -1.6742635 
 4885000    9.9244492   -1.7248281  0.047464922   -1.6773632 
 4886000    10.574357   -1.7365305  0.050573186   -1.6859573 
 4887000    12.968554    -1.719074  0.062023734   -1.6570502 
 4888000    10.899839   -1.7367655  0.052129848   -1.6846357 
 4889000    11.683291   -1.7197764  0.055876806   -1.6638996 
 4890000    10.632852   -1.7364655  0.050852949   -1.6856125 
 4891000    11.542062   -1.7252407   0.05520136   -1.6700393 
 4892000    13.137552   -1.7203281   0.06283199   -1.6574961 
 4893000    9.9322101   -1.7388285   0.04750204   -1.6913264 
 4894000    11.182346   -1.7326476  0.053480974   -1.6791666 
 4895000    11.536719   -1.7173093  0.055175805   -1.6621335 
 4896000    13.698695   -1.7254968  0.065515727   -1.6599811 
 4897000    15.041482   -1.7354739  0.071937774   -1.6635361 
 4898000     10.01887   -1.7180846  0.047916502   -1.6701681 
 4899000     8.461389   -1.7328096  0.040467654   -1.6923419 
 4900000    12.333468   -1.7293975  0.058986355   -1.6704111 
 4901000    11.980009   -1.7241823  0.057295896   -1.6668864 
 4902000    9.0525698   -1.7381839   0.04329505   -1.6948888 
 4903000    9.6426156   -1.7362677  0.046117018   -1.6901507 
 4904000    15.866402   -1.7194168  0.075883056   -1.6435337 
 4905000    14.702734   -1.7431109  0.070317668   -1.6727933 
 4906000    9.3350334   -1.7407521  0.044645967   -1.6961062 
 4907000    13.838167   -1.7267883  0.066182766   -1.6606055 
 4908000     12.91584   -1.7252258  0.061771626   -1.6634542 
 4909000    12.390156   -1.7307798  0.059257476   -1.6715223 
 4910000    10.866071   -1.7322022  0.051968348   -1.6802339 
 4911000    10.362991   -1.7078854  0.049562302   -1.6583231 
 4912000    15.059972   -1.7407454  0.072026203   -1.6687192 
 4913000    11.000256   -1.7305698  0.052610103   -1.6779597 
 4914000    13.249012   -1.7265485  0.063365062   -1.6631835 
 4915000    10.401407   -1.7339416  0.049746031   -1.6841956 
 4916000    9.4462157   -1.7304762  0.045177711   -1.6852984 
 4917000    11.962169   -1.7391482  0.057210573   -1.6819376 
 4918000    14.349163   -1.7401053   0.06862667   -1.6714787 
 4919000    12.217348    -1.727155     0.058431    -1.668724 
 4920000    12.466676   -1.7293936  0.059623441   -1.6697702 
 4921000    11.145537   -1.7377447  0.053304929   -1.6844398 
 4922000    11.504114   -1.7202302  0.055019868   -1.6652103 
 4923000    12.688965   -1.7402914  0.060686563   -1.6796048 
 4924000     9.199849   -1.7298901  0.043999431   -1.6858907 
 4925000    12.362443   -1.7261946  0.059124936   -1.6670696 
 4926000    11.737412   -1.7297299  0.056135645   -1.6735943 
 4927000    9.9780411   -1.7221025  0.047721232   -1.6743813 
 4928000    15.936896   -1.6942679  0.076220205   -1.6180477 
 4929000     17.88246   -1.6944558  0.085525104   -1.6089307 
 4930000    13.209043   -1.7021942  0.063173905   -1.6390203 
 4931000    19.369087   -1.6932964  0.092635086   -1.6006613 
 4932000    17.227306   -1.7098211  0.082391751   -1.6274293 
 4933000    14.656958   -1.6896473   0.07009874   -1.6195485 
 4934000    14.142397   -1.7219744  0.067637788   -1.6543366 
 4935000    13.808503   -1.6902973  0.066040895   -1.6242564 
 4936000    18.309805   -1.7085585  0.087568938   -1.6209896 
 4937000    16.585038    -1.707975  0.079320022    -1.628655 
 4938000    16.338179   -1.7148994  0.078139388     -1.63676 
 4939000    16.399394   -1.7049468   0.07843216   -1.6265146 
 4940000    16.456798   -1.7040772  0.078706699   -1.6253705 
 4941000    15.890091   -1.7192992  0.075996354   -1.6433028 
 4942000    17.945938   -1.6811886  0.085828698   -1.5953599 
 4943000    14.635594   -1.7145606  0.069996563    -1.644564 
 4944000    17.020824   -1.7055799  0.081404226   -1.6241757 
 4945000    12.765059   -1.6868509  0.061050495   -1.6258004 
 4946000    15.160963    -1.706957  0.072509205   -1.6344478 
 4947000     13.89084   -1.6938186  0.066434681    -1.627384 
 4948000    14.995594   -1.6917581   0.07171831   -1.6200398 
 4949000    17.030458   -1.7075267  0.081450299   -1.6260764 
 4950000    17.112566   -1.6915885  0.081842991   -1.6097455 
 4951000    18.962346   -1.7113653  0.090689797   -1.6206755 
 4952000    14.900083   -1.7183973  0.071261513   -1.6471358 
 4953000    13.806717   -1.7029038  0.066032353   -1.6368715 
 4954000    16.421049   -1.6842701  0.078535727   -1.6057344 
 4955000    14.157714   -1.7185939  0.067711043   -1.6508829 
 4956000    16.547063   -1.7082682  0.079138401   -1.6291298 
 4957000    17.537916   -1.7276744   0.08387728   -1.6437971 
 4958000    10.677857   -1.7409729   0.05106819   -1.6899047 
 4959000    13.299626   -1.7349153  0.063607127   -1.6713082 
 4960000     12.70785   -1.7219544  0.060776885   -1.6611775 
 4961000    16.666085   -1.6918656  0.079707642    -1.612158 
 4962000    16.642487   -1.7176338   0.07959478    -1.638039 
 4963000    16.094858   -1.7173676  0.076975677    -1.640392 
 4964000    12.684079   -1.7189422  0.060663199    -1.658279 
 4965000    12.164309   -1.7358491  0.058177333   -1.6776718 
 4966000     8.858345   -1.7155082  0.042366145    -1.673142 
 4967000    12.698963   -1.7184502  0.060734381   -1.6577159 
 4968000    12.475448   -1.7347102  0.059665394   -1.6750448 
 4969000    10.728087   -1.7336126  0.051308423   -1.6823041 
 4970000    11.767392   -1.7391152  0.056279028   -1.6828361 
 4971000    11.244954    -1.723754  0.053780401   -1.6699736 
 4972000    10.975955   -1.7369931  0.052493879   -1.6844992 
 4973000    13.122401   -1.7345371  0.062759528   -1.6717776 
 4974000    12.931666   -1.7199504  0.061847314   -1.6581031 
 4975000    11.839058   -1.7285453  0.056621781   -1.6719235 
 4976000     11.74732   -1.7417539  0.056183031   -1.6855709 
 4977000    11.050867   -1.7267317  0.052852159   -1.6738796 
 4978000    13.439156   -1.7332985  0.064274446   -1.6690241 
 4979000    12.291211   -1.7360308  0.058784258   -1.6772465 
 4980000    11.191337   -1.7359163  0.053523971   -1.6823923 
 4981000    12.129546   -1.7338463  0.058011073   -1.6758353 
 4982000    10.627398   -1.7366641  0.050826863   -1.6858373 
 4983000    13.289454    -1.739007  0.063558482   -1.6754485 
 4984000    12.624463   -1.7386276  0.060378077   -1.6782495 
 4985000    12.228484   -1.7356296  0.058484258   -1.6771453 
 4986000    10.765742   -1.7290232  0.051488511   -1.6775347 
 4987000    8.4996926   -1.7431628  0.040650846   -1.7025119 
 4988000    12.959215   -1.7202541  0.061979071    -1.658275 
 4989000    12.154665   -1.7342021   0.05813121   -1.6760708 
 4990000    11.904873   -1.7294961   0.05693655   -1.6725595 
 4991000    11.368844   -1.7413398   0.05437292   -1.6869669 
 4992000    8.4121931   -1.7222723  0.040232368     -1.68204 
 4993000    10.444708   -1.7255623  0.049953125   -1.6756092 
 4994000    13.469749   -1.7381499  0.064420761   -1.6737291 
 4995000    11.780604   -1.7412613  0.056342217   -1.6849191 
 4996000    12.169901   -1.7169244  0.058204078   -1.6587203 
 4997000     10.26283   -1.7208034  0.049083269   -1.6717202 
 4998000    11.536801   -1.7438912  0.055176195    -1.688715 
 4999000    9.4780802   -1.7293848  0.045330107   -1.6840546 
 5000000    13.748716   -1.7210772  0.065754957   -1.6553222 
Loop time of 1276.16 on 1 procs for 5000000 steps with 38 atoms

Performance: 338.517 ns/day, 0.071 hours/ns, 3918.019 timesteps/s
97.6% CPU use with 1 MPI tasks x no OpenMP threads

MPI task timing breakdown:
Section |  min time  |  avg time  |  max time  |%varavg| %total
---------------------------------------------------------------
Pair    | 1193.9     | 1193.9     | 1193.9     |   0.0 | 93.55
Neigh   | 3.624e-05  | 3.624e-05  | 3.624e-05  |   0.0 |  0.00
Comm    | 1.1171     | 1.1171     | 1.1171     |   0.0 |  0.09
Output  | 0.23748    | 0.23748    | 0.23748    |   0.0 |  0.02
Modify  | 16.86      | 16.86      | 16.86      |   0.0 |  1.32
Other   |            | 64.08      |            |       |  5.02

Nlocal:        38.0000 ave          38 max          38 min
Histogram: 1 0 0 0 0 0 0 0 0 0
Nghost:        0.00000 ave           0 max           0 min
Histogram: 1 0 0 0 0 0 0 0 0 0
Neighs:        0.00000 ave           0 max           0 min
Histogram: 1 0 0 0 0 0 0 0 0 0

Total # of neighbors = 0
Ave neighs/atom = 0.0000000
Neighbor list builds = 160
Dangerous builds = 0


---------------------------------------------------------------------
      Device Time Info (average): 
---------------------------------------------------------------------
Data Transfer:   427.9054 s.
Data Cast/Pack:  2.1132 s.
Neighbor copy:   0.0198 s.
Neighbor build:  0.0122 s.
Force calc:      258.7460 s.
Neighbor (CPU):  0.0037 s.
Device Overhead: 217.4080 s.
Average split:   1.0000.
Threads / atom:  4.
Max Mem / Proc:  0.06 MB.
CPU Driver_Time: 225.0672 s.
CPU Idle_Time:   1010.9915 s.
---------------------------------------------------------------------

Total wall time: 0:21:16
