LAMMPS (29 Oct 2020)
Processor partition = 8
Reading data file ...
  orthogonal box = (-50.000000 -50.000000 -50.000000) to (50.000000 50.000000 50.000000)
  1 by 1 by 1 MPI processor grid
  reading atoms ...
  38 atoms
  read_data CPU = 0.014 seconds

--------------------------------------------------------------------------
- Using acceleration for lj/cut:
-  with 1 proc(s) per device.
--------------------------------------------------------------------------
Device 0: Tesla P100-PCIE-16GB, 56 CUs, 15/16 GB, 1.3 GHZ (Mixed Precision)
--------------------------------------------------------------------------

Initializing Device and compiling on process 0...Done.
Initializing Device 0 on core 0...Done.

Setting up Verlet run ...
  Unit style    : metal
  Current step  : 0
  Time step     : 0.001
Per MPI rank memory allocation (min/avg/max) = 3.436 | 3.436 | 3.436 Mbytes
Step Temp PotEng KinEng TotEng 
       0    21.798134   -1.7950808   0.10425231   -1.6908285 
    1000      21.3299   -1.5880637   0.10201292   -1.4860507 
    2000    23.111245   -1.6640918   0.11053242   -1.5535594 
    3000    24.457731   -1.7009198   0.11697217   -1.5839477 
    4000      23.8714   -1.6220763   0.11416796   -1.5079083 
    5000    16.535743    -1.655071  0.079084263   -1.5759868 
    6000    26.993787   -1.6338164   0.12910117   -1.5047152 
    7000    22.527137   -1.6682509   0.10773886   -1.5605121 
    8000    19.541689   -1.6599348  0.093460578   -1.5664742 
    9000    20.124105   -1.6695924  0.096246057   -1.5733463 
   10000    23.489039   -1.6952357   0.11233927   -1.5828964 
   11000    17.119335   -1.7035141  0.081875366   -1.6216387 
   12000    13.845976   -1.7113918  0.066220118   -1.6451717 
   13000    12.044114   -1.6823426  0.057602485   -1.6247401 
   14000    16.546648   -1.7067961  0.079136419   -1.6276597 
   15000    14.350459    -1.720676  0.068632867   -1.6520432 
   16000    15.005384   -1.7062392   0.07176513   -1.6344741 
   17000    9.8397461   -1.7227052  0.047059819   -1.6756454 
   18000    13.424538   -1.7296952  0.064204534   -1.6654907 
   19000    10.856978   -1.7331475  0.051924857   -1.6812226 
   20000    14.364289   -1.7272609  0.068699012   -1.6585619 
   21000    14.101298   -1.7218286  0.067441226   -1.6543873 
   22000    10.556347   -1.7420301  0.050487052   -1.6915431 
   23000    10.987115   -1.7456766  0.052547253   -1.6931294 
   24000     10.85319   -1.7444007  0.051906741   -1.6924939 
   25000    6.7772539   -1.7511864  0.032413066   -1.7187734 
   26000     9.279603   -1.7498921  0.044380865   -1.7055112 
   27000    8.3355218   -1.7367658  0.039865678   -1.6969001 
   28000    10.821324   -1.7516203  0.051754337    -1.699866 
   29000    7.8696637    -1.749303  0.037637653   -1.7116653 
   30000    8.7951294   -1.7451366  0.042063809   -1.7030727 
   31000    10.006442   -1.7540586  0.047857064   -1.7062015 
   32000    7.7281896   -1.7361236  0.036961035   -1.6991625 
   33000    7.4450871   -1.7520576  0.035607062   -1.7164505 
   34000    8.0971025   -1.7438452  0.038725408   -1.7051198 
   35000    10.378234   -1.7481417  0.049635204   -1.6985065 
   36000    8.9938294   -1.7513086  0.043014117   -1.7082945 
   37000    8.6525534   -1.7408703  0.041381921   -1.6994883 
   38000    10.956921   -1.7502591   0.05240285   -1.6978563 
   39000    7.3362752   -1.7434588  0.035086656   -1.7083721 
   40000    9.5258347   -1.7540982  0.045558498   -1.7085397 
   41000    7.7470879   -1.7456907  0.037051419   -1.7086392 
   42000     9.952058   -1.7474771  0.047596965   -1.6998801 
   43000    8.9883174   -1.7485197  0.042987755   -1.7055319 
   44000    9.4295021   -1.7412982  0.045097776   -1.6962005 
   45000    7.4541322    -1.737502  0.035650322   -1.7018517 
   46000    9.6692744    -1.749411  0.046244517   -1.7031665 
   47000    10.764533   -1.7437214  0.051482729   -1.6922387 
   48000    9.7133277   -1.7543204  0.046455208   -1.7078652 
   49000    9.2167346   -1.7484703  0.044080189   -1.7043901 
   50000    7.9292198   -1.7559355  0.037922488    -1.718013 
   51000    8.4020488   -1.7426475  0.040183852   -1.7024637 
   52000    10.340181   -1.7487252  0.049453212    -1.699272 
   53000    10.334065   -1.7501093  0.049423959   -1.7006854 
   54000    6.5903963   -1.7416417  0.031519396   -1.7101223 
   55000    9.3949144    -1.752023  0.044932356   -1.7070906 
   56000     8.080417   -1.7359582  0.038645607   -1.6973126 
   57000    7.6238829    -1.747807  0.036462176   -1.7113448 
   58000    9.8450011   -1.7415499  0.047084952    -1.694465 
   59000    9.4744331   -1.7422563  0.045312664   -1.6969437 
   60000    6.6059002   -1.7459218  0.031593546   -1.7143282 
   61000    9.2525726   -1.7541037  0.044251588   -1.7098521 
   62000    9.8598743   -1.7295993  0.047156085   -1.6824432 
   63000    9.6459123   -1.7492399  0.046132785   -1.7031071 
   64000    8.1694578   -1.7430923  0.039071456   -1.7040209 
   65000    9.4773068   -1.7521567  0.045326408   -1.7068303 
   66000     7.457813   -1.7499133  0.035667926   -1.7142453 
   67000    9.5624967   -1.7580205  0.045733839   -1.7122867 
   68000     9.569572   -1.7452671  0.045767678   -1.6994994 
   69000    8.9039958   -1.7551003  0.042584476   -1.7125158 
   70000     10.42132   -1.7577157  0.049841271   -1.7078744 
   71000    5.4396689    -1.757654  0.026015899   -1.7316381 
   72000    5.6525939     -1.76747  0.027034239   -1.7404357 
   73000    5.6809775    -1.762038  0.027169987    -1.734868 
   74000    6.5407197   -1.7659698  0.031281812    -1.734688 
   75000    6.3967315   -1.7675783   0.03059317   -1.7369851 
   76000    5.4495697   -1.7596416   0.02606325   -1.7335784 
   77000    6.5320204   -1.7687097  0.031240206   -1.7374695 
   78000     6.370793   -1.7683075  0.030469116   -1.7378384 
   79000    6.7159623   -1.7585029  0.032119932   -1.7263829 
   80000    5.8547562   -1.7625208  0.028001105   -1.7345197 
   81000     5.715826   -1.7573184  0.027336655   -1.7299817 
   82000    7.4291464   -1.7605265  0.035530824   -1.7249957 
   83000    5.6683603   -1.7642128  0.027109644   -1.7371032 
   84000    8.0458319   -1.7351511    0.0384802   -1.6966709 
   85000    9.2918703   -1.7468102  0.044439535   -1.7023707 
   86000    7.5644955   -1.7516853  0.036178148   -1.7155071 
   87000    6.6568633   -1.7496635  0.031837283   -1.7178262 
   88000    7.4926108   -1.7481394   0.03583435   -1.7123051 
   89000    9.2545425   -1.7500012   0.04426101   -1.7057402 
   90000    9.4344478   -1.7378577  0.045121429   -1.6927363 
   91000    10.129572    -1.749662  0.048445947   -1.7012161 
   92000    7.3850199   -1.7434447  0.035319784   -1.7081249 
   93000    8.9197729   -1.7380796  0.042659932   -1.6954197 
   94000    12.310967    -1.721329  0.058878743   -1.6624503 
   95000    12.048575   -1.7270953  0.057623819   -1.6694714 
   96000    11.389102   -1.7279488  0.054469807    -1.673479 
   97000    13.120629   -1.7262632  0.062751054   -1.6635121 
   98000    13.504724    -1.718637  0.064588036    -1.654049 
   99000    14.293617   -1.6877245  0.068361016   -1.6193635 
  100000    17.324446   -1.7134811  0.082856333   -1.6306248 
  101000    12.967453    -1.708863  0.062018469   -1.6468445 
  102000    12.773422   -1.6826704  0.061090494   -1.6215799 
  103000    17.667734   -1.6982453  0.084498155   -1.6137471 
  104000    21.856416   -1.7056457   0.10453105   -1.6011146 
  105000    16.834559   -1.6964095  0.080513388   -1.6158961 
  106000    11.931905   -1.7075568  0.057065831   -1.6504909 
  107000    16.359497   -1.6979622  0.078241345   -1.6197209 
  108000    14.375156   -1.6975494  0.068750986   -1.6287984 
  109000    17.144561    -1.702205  0.081996015    -1.620209 
  110000    17.841599   -1.7022345  0.085329682   -1.6169048 
  111000    12.038212   -1.7039344  0.057574257   -1.6463601 
  112000     16.28883    -1.716549  0.077903372   -1.6386457 
  113000    13.370169   -1.7024122  0.063944509   -1.6384677 
  114000    12.993311   -1.7228829  0.062142139   -1.6607407 
  115000    12.743837   -1.7324615  0.060948996   -1.6715126 
  116000    11.118408   -1.7296914   0.05317518   -1.6765162 
  117000    13.883717   -1.7386011  0.066400615   -1.6722004 
  118000    12.089177   -1.7274912  0.057818003   -1.6696732 
  119000    12.434268   -1.7295863  0.059468446   -1.6701179 
  120000    10.316379   -1.7276273  0.049339378   -1.6782879 
  121000    12.346406   -1.7265521  0.059048233   -1.6675038 
  122000    12.423941   -1.7355411  0.059419054    -1.676122 
  123000    11.734889   -1.7309713  0.056123576   -1.6748477 
  124000    11.831592   -1.7479767   0.05658607   -1.6913906 
  125000    6.6509485   -1.7448487  0.031808995   -1.7130398 
  126000    7.6385495   -1.7537178  0.036532321   -1.7171855 
  127000    8.0383319   -1.7480007   0.03844433   -1.7095563 
  128000    8.4397547   -1.7390698  0.040364185   -1.6987056 
  129000     9.164342   -1.7554182  0.043829614   -1.7115886 
  130000    8.9931552   -1.7382111  0.043010892   -1.6952002 
  131000    8.1386282   -1.7437728   0.03892401   -1.7048488 
  132000    8.4591848   -1.7448202  0.040457112   -1.7043631 
  133000    9.7371107   -1.7473104  0.046568953   -1.7007415 
  134000    7.8434468   -1.7476057  0.037512268   -1.7100934 
  135000     9.290032   -1.7531381  0.044430743   -1.7087074 
  136000    9.5506386   -1.7515873  0.045677127   -1.7059102 
  137000    8.5082827   -1.7447342  0.040691929   -1.7040423 
  138000    11.398327    -1.745072  0.054513927   -1.6905581 
  139000    8.0563314   -1.7573056  0.038530415   -1.7187752 
  140000    8.2616273   -1.7504706  0.039512268   -1.7109584 
  141000    8.6931278   -1.7535563  0.041575973   -1.7119804 
  142000    7.0993271    -1.748491  0.033953422   -1.7145376 
  143000    10.874111   -1.7559085  0.052006797   -1.7039017 
  144000    7.6644932   -1.7484286    0.0366564   -1.7117722 
  145000    9.6826238   -1.7420903  0.046308362    -1.695782 
  146000      9.81775   -1.7410441   0.04695462   -1.6940895 
  147000    8.3248046   -1.7518057  0.039814422   -1.7119913 
  148000    8.2182471    -1.745524  0.039304797   -1.7062193 
  149000    9.1043555   -1.7435649  0.043542722   -1.7000222 
  150000    9.6696444   -1.7575446  0.046246287   -1.7112984 
  151000    9.5655012   -1.7421989  0.045748209   -1.6964507 
  152000    9.0967128   -1.7528629   0.04350617   -1.7093568 
  153000     7.518328   -1.7437728  0.035957346   -1.7078155 
  154000    9.0328457   -1.7448255  0.043200717   -1.7016248 
  155000    8.8834737   -1.7522467  0.042486327   -1.7097603 
  156000    9.2995389   -1.7412961  0.044476211   -1.6968199 
  157000    10.883312   -1.7433271  0.052050806   -1.6912763 
  158000    10.075316   -1.7379579   0.04818646   -1.6897714 
  159000    9.1695987   -1.7572181  0.043854755   -1.7133634 
  160000    9.8704606   -1.7546382  0.047206715   -1.7074314 
  161000     9.626349   -1.7401805  0.046039221   -1.6941412 
  162000    7.6756912   -1.7368036  0.036709956   -1.7000936 
  163000    8.4774899   -1.7551523  0.040544658   -1.7146076 
  164000    7.4888352   -1.7425397  0.035816293   -1.7067234 
  165000    7.4891274   -1.7471605   0.03581769   -1.7113428 
  166000     9.350948   -1.7508906  0.044722081   -1.7061685 
  167000    8.5914451   -1.7512273  0.041089663   -1.7101376 
  168000    10.607841   -1.7438919  0.050733328   -1.6931586 
  169000    5.9290747   -1.7521426  0.028356543   -1.7237861 
  170000    8.7095603   -1.7435722  0.041654564   -1.7019176 
  171000     10.92397   -1.7451165  0.052245255   -1.6928713 
  172000    11.005136    -1.740303  0.052633441   -1.6876696 
  173000     6.477842   -1.7438422  0.030981092   -1.7128611 
  174000    10.323576   -1.7451196  0.049373796   -1.6957458 
  175000    9.0719412   -1.7340511  0.043387696   -1.6906634 
  176000    12.091873   -1.7523971  0.057830899   -1.6945662 
  177000    10.338545    -1.749407   0.04944539   -1.6999616 
  178000    8.2774363   -1.7523244  0.039587877   -1.7127365 
  179000    12.371052   -1.7497582  0.059166105   -1.6905921 
  180000    9.1736739   -1.7353064  0.043874245   -1.6914321 
  181000    10.652456   -1.7440862  0.050946705   -1.6931395 
  182000    8.4781232   -1.7517478  0.040547687   -1.7112001 
  183000    12.203572   -1.7183185  0.058365114   -1.6599534 
  184000    10.848426    -1.722064  0.051883959     -1.67018 
  185000    13.072005   -1.7270857  0.062518503   -1.6645672 
  186000     13.29078   -1.7390775  0.063564823   -1.6755127 
  187000    14.265427   -1.7281968  0.068226192   -1.6599706 
  188000    13.022135    -1.728791  0.062279994   -1.6665111 
  189000    10.641735   -1.7308245   0.05089543   -1.6799291 
  190000    11.258825   -1.7267564   0.05384674   -1.6729097 
  191000    11.392534   -1.7371877   0.05448622   -1.6827015 
  192000    12.068887    -1.697587  0.057720966    -1.639866 
  193000    12.138033   -1.7245689  0.058051664   -1.6665173 
  194000    14.635026   -1.6774736  0.069993846   -1.6074798 
  195000    18.230015   -1.6916879  0.087187333   -1.6045006 
  196000    16.199977   -1.7128617  0.077478421   -1.6353833 
  197000    12.704709   -1.7040513  0.060761863   -1.6432894 
  198000    16.556471   -1.6969382  0.079183398   -1.6177548 
  199000    17.873235   -1.7161916  0.085480989   -1.6307106 
  200000    15.891614   -1.7037426  0.076003638    -1.627739 
  201000    16.007447   -1.6711362  0.076557622   -1.5945786 
  202000    20.392504   -1.7109498  0.097529708   -1.6134201 
  203000    16.180239   -1.6943924  0.077384021   -1.6170084 
  204000    23.557277   -1.6419016   0.11266563   -1.5292359 
  205000    22.801161   -1.6685792   0.10904941   -1.5595298 
  206000    23.631816   -1.6430258   0.11302212   -1.5300037 
  207000    21.722813   -1.6880793   0.10389208   -1.5841872 
  208000    25.722084   -1.6488275   0.12301909   -1.5258084 
  209000     19.89777   -1.6825954  0.095163578   -1.5874318 
  210000    21.002224   -1.6321513   0.10044577   -1.5317055 
  211000    17.808876   -1.6926951  0.085173181   -1.6075219 
  212000    20.223464    -1.626355  0.096721253   -1.5296337 
  213000    21.623467    -1.697894   0.10341694   -1.5944771 
  214000    24.308569   -1.6625308   0.11625878    -1.546272 
  215000    21.386244   -1.6782977   0.10228239   -1.5760153 
  216000    27.156854   -1.6679911   0.12988106     -1.53811 
  217000    25.476341   -1.6788993    0.1218438   -1.5570555 
  218000    21.848186   -1.6811114   0.10449169   -1.5766198 
  219000    25.414051    -1.684568   0.12154588   -1.5630221 
  220000    24.667661   -1.6814839   0.11797618   -1.5635077 
  221000    20.429357   -1.6723485   0.09770596   -1.5746426 
  222000     18.05867     -1.64376  0.086367851   -1.5573921 
  223000    22.913768   -1.6629759   0.10958797   -1.5533879 
  224000    25.651919   -1.6629642   0.12268352   -1.5402807 
  225000    13.734436     -1.71098  0.065686663   -1.6452933 
  226000    20.036466   -1.6892819  0.095826909    -1.593455 
  227000    15.123121    -1.710419  0.072328223   -1.6380908 
  228000    15.642369   -1.6991734  0.074811592   -1.6243618 
  229000    14.195111   -1.6924266  0.067889899   -1.6245367 
  230000    13.901698   -1.7250478  0.066486611   -1.6585612 
  231000    18.604824   -1.7089349  0.088979904    -1.619955 
  232000    15.129282   -1.7034642  0.072357686   -1.6311065 
  233000    14.280293   -1.7101254  0.068297294   -1.6418282 
  234000    17.888476   -1.7062195  0.085553879   -1.6206656 
  235000    14.920743   -1.6881424  0.071360324   -1.6167821 
  236000    19.757439   -1.7264081   0.09449243   -1.6319156 
  237000    13.475404   -1.6936326  0.064447809   -1.6291848 
  238000    14.151716   -1.7078048  0.067682357   -1.6401224 
  239000    13.552947   -1.7041592  0.064818668   -1.6393405 
  240000    16.888536   -1.7053432  0.080771541   -1.6245717 
  241000    13.354794    -1.701847  0.063870978    -1.637976 
  242000    15.520383   -1.7110975  0.074228178   -1.6368693 
  243000    17.508805   -1.6946617  0.083738053   -1.6109237 
  244000    12.771717    -1.721187  0.061082337   -1.6601047 
  245000    19.916895   -1.6913028  0.095255048   -1.5960478 
  246000    11.079851   -1.7169353  0.052990775   -1.6639446 
  247000     14.49205   -1.6940671  0.069310044   -1.6247571 
  248000    16.076383   -1.7102657  0.076887317   -1.6333784 
  249000    15.654534   -1.7248909  0.074869772   -1.6500211 
  250000    16.872865   -1.7087467  0.080696593   -1.6280501 
  251000      14.4965   -1.7146775  0.069331327   -1.6453462 
  252000    15.557198   -1.6891703  0.074404248    -1.614766 
  253000    17.530581   -1.7142576  0.083842199   -1.6304154 
  254000    14.477488   -1.6903143  0.069240404   -1.6210738 
  255000    16.008912   -1.7281579   0.07656463   -1.6515932 
  256000    12.728821   -1.6994861   0.06087718    -1.638609 
  257000    11.237924   -1.6909084   0.05374678   -1.6371616 
  258000    15.986514   -1.7163622  0.076457508   -1.6399047 
  259000    10.453428   -1.7300963  0.049994829   -1.6801014 
  260000     16.10003   -1.7422378  0.077000413   -1.6652373 
  261000    13.201019    -1.737974   0.06313553   -1.6748384 
  262000    16.386689   -1.6740595  0.078371394   -1.5956881 
  263000    15.278609   -1.7255172  0.073071863   -1.6524454 
  264000    23.281724     -1.71525   0.11134776   -1.6039023 
  265000    16.395788   -1.6975157  0.078414911   -1.6191008 
  266000    20.427712   -1.7000712  0.097698092   -1.6023731 
  267000    16.393607   -1.7053207   0.07840448   -1.6269163 
  268000    18.981042   -1.6851863  0.090779214   -1.5944071 
  269000    14.990949   -1.7077326  0.071696094   -1.6360365 
  270000    16.367571   -1.7138709  0.078279962   -1.6355909 
  271000    15.060185   -1.6929855  0.072027221   -1.6209583 
  272000    15.785402   -1.7214733  0.075495665   -1.6459776 
  273000    13.249283   -1.7106512  0.063366359   -1.6472848 
  274000    12.704039    -1.701262  0.060758658   -1.6405033 
  275000      15.5517   -1.7156943  0.074377953   -1.6413163 
  276000    15.056595   -1.7087996  0.072010052   -1.6367896 
  277000    12.467907    -1.692348  0.059629327   -1.6327187 
  278000    17.492057   -1.7205362  0.083657956   -1.6368783 
  279000     22.24938   -1.7220536   0.10641045   -1.6156432 
  280000    14.478689   -1.7086856  0.069246145   -1.6394394 
  281000    16.066794   -1.6891304  0.076841458   -1.6122889 
  282000    17.735173   -1.7012848  0.084820687   -1.6164641 
  283000    14.737278   -1.7102266  0.070482882   -1.6397437 
  284000    15.612941   -1.7168144  0.074670846   -1.6421435 
  285000    13.505254   -1.6828909  0.064590572   -1.6183003 
  286000    19.771157   -1.6788219  0.094558037   -1.5842639 
  287000    16.622256   -1.7143794  0.079498024   -1.6348813 
  288000    18.179312   -1.6896766   0.08694484   -1.6027317 
  289000    16.936599   -1.6725668   0.08100141   -1.5915654 
  290000     16.96588   -1.7171422  0.081141446   -1.6360008 
  291000    15.738044   -1.7024108  0.075269171   -1.6271417 
  292000    18.234836   -1.6943495  0.087210387   -1.6071391 
  293000    15.700029   -1.7113236  0.075087359   -1.6362363 
  294000    16.424456   -1.7086657  0.078552019   -1.6301137 
  295000    16.865766   -1.6908632  0.080662642   -1.6102006 
  296000    17.247783   -1.7178614  0.082489683   -1.6353717 
  297000    16.231785   -1.7076676  0.077630549    -1.630037 
  298000    11.405492   -1.6833952  0.054548195    -1.628847 
  299000    16.826915   -1.7147479   0.08047683    -1.634271 
  300000    14.424131   -1.7079844  0.068985217   -1.6389992 
  301000    18.584801     -1.69046  0.088884139   -1.6015758 
  302000    18.006525   -1.6814498  0.086118462   -1.5953313 
  303000    19.094197   -1.7280701  0.091320389   -1.6367497 
  304000    12.688866   -1.7306384  0.060686091   -1.6699523 
  305000    13.705438   -1.7158305  0.065547974   -1.6502825 
  306000    11.664237   -1.7259842  0.055785674   -1.6701985 
  307000    10.827022   -1.7457878  0.051781592   -1.6940062 
  308000    11.079009   -1.7332766  0.052986748   -1.6802899 
  309000    9.3650002   -1.7286035  0.044789287   -1.6838143 
  310000    12.458581   -1.7315026  0.059584723   -1.6719179 
  311000    14.221941   -1.7348322  0.068018217    -1.666814 
  312000    11.582461   -1.7342075   0.05539457   -1.6788129 
  313000    11.367711   -1.7312533  0.054367504   -1.6768858 
  314000    14.833632   -1.7234882  0.070943705   -1.6525445 
  315000     9.677824   -1.7375275  0.046285407   -1.6912421 
  316000    12.198371   -1.7446716  0.058340239   -1.6863313 
  317000    12.371625   -1.7166308  0.059168849    -1.657462 
  318000    12.983631   -1.7272989  0.062095844    -1.665203 
  319000    10.802657   -1.7044375  0.051665062   -1.6527724 
  320000    16.969532   -1.6931267  0.081158912   -1.6119678 
  321000    15.841388   -1.6973986  0.075763426   -1.6216352 
  322000    16.673023    -1.712403  0.079740824   -1.6326621 
  323000    16.300809   -1.6999401  0.077960663   -1.6219795 
  324000    14.251493   -1.7206292  0.068159553   -1.6524696 
  325000    18.059922   -1.7416897  0.086373843   -1.6553159 
  326000    12.262535   -1.7186468  0.058647111   -1.6599997 
  327000     14.49375   -1.7357536  0.069318177   -1.6664354 
  328000    11.390693   -1.7180328  0.054477416   -1.6635554 
  329000    14.762711   -1.7345903  0.070604515   -1.6639857 
  330000    12.752705   -1.7304907  0.060991412   -1.6694993 
  331000    10.959484   -1.7178135  0.052415107   -1.6653983 
  332000     12.77948   -1.7014006  0.061119464   -1.6402812 
  333000    15.483112    -1.692791  0.074049925   -1.6187411 
  334000    16.173802   -1.7120771  0.077353237   -1.6347238 
  335000    17.774927   -1.6927168  0.085010814    -1.607706 
  336000    15.631892    -1.698088  0.074761484   -1.6233265 
  337000    13.825641   -1.7051764  0.066122864   -1.6390535 
  338000    17.302029   -1.7077697  0.082749122   -1.6250205 
  339000    15.015537   -1.7027042  0.071813687   -1.6308906 
  340000     16.20321   -1.7088125  0.077493883   -1.6313186 
  341000    12.316727   -1.7173472  0.058906293   -1.6584409 
  342000    15.816917   -1.7032451   0.07564639   -1.6275987 
  343000    13.895271    -1.705941  0.066455876   -1.6394851 
  344000    15.718838   -1.7205527  0.075177312   -1.6453754 
  345000    19.305765   -1.6907642  0.092332243    -1.598432 
  346000    19.313853   -1.7109173  0.092370925   -1.6185464 
  347000    14.129721   -1.7040999  0.067577163   -1.6365227 
  348000    17.738898   -1.6906388  0.084838504   -1.6058003 
  349000    17.372168   -1.7094517  0.083084569   -1.6263671 
  350000    16.269307   -1.6917853      0.07781   -1.6139753 
  351000    15.072913   -1.7256616  0.072088094   -1.6535736 
  352000    9.0600181   -1.7238633  0.043330672   -1.6805327 
  353000     12.74361    -1.729898  0.060947913   -1.6689501 
  354000    12.543801   -1.7209847  0.059992303   -1.6609924 
  355000      10.3044   -1.7281249  0.049282084   -1.6788428 
  356000    13.780382   -1.7305016  0.065906403   -1.6645952 
  357000    10.047556   -1.7275397  0.048053695    -1.679486 
  358000    15.064788   -1.7156469  0.072049238   -1.6435976 
  359000    10.094774   -1.7442064   0.04827952   -1.6959269 
  360000    12.109069   -1.7253028  0.057913143   -1.6673896 
  361000    10.907939   -1.7139192  0.052168588   -1.6617506 
  362000    9.5233389   -1.7441123  0.045546562   -1.6985657 
  363000    10.238532   -1.7432891  0.048967064   -1.6943221 
  364000    10.564647   -1.7224862  0.050526747   -1.6719594 
  365000    12.179448   -1.7358712  0.058249738   -1.6776215 
  366000    10.797826   -1.7263086  0.051641959   -1.6746667 
  367000    11.794173   -1.7270233  0.056407111   -1.6706162 
  368000    11.777819   -1.7527963  0.056328896   -1.6964674 
  369000    8.8180833   -1.7527822  0.042173589   -1.7106086 
  370000    9.4094097   -1.7426867  0.045001681    -1.697685 
  371000    7.2441524   -1.7423191  0.034646067    -1.707673 
  372000    14.362042   -1.7241217  0.068688267   -1.6554334 
  373000    13.007193   -1.7375303   0.06220853   -1.6753218 
  374000    13.705343   -1.7403271  0.065547521   -1.6747795 
  375000    11.543101   -1.7253939  0.055206329   -1.6701876 
  376000    11.928414   -1.7146454  0.057049137   -1.6575963 
  377000    12.759922   -1.7316384  0.061025925   -1.6706125 
  378000    12.356622   -1.7356041  0.059097095    -1.676507 
  379000    11.442529   -1.7212579  0.054725327   -1.6665326 
  380000    12.496203   -1.7236645  0.059764659   -1.6638998 
  381000    11.333615   -1.7318398  0.054204437   -1.6776354 
  382000    10.195581   -1.7187871  0.048761645   -1.6700254 
  383000    9.1259318   -1.7276556  0.043645913   -1.6840097 
  384000    12.813672   -1.7283569  0.061282992   -1.6670739 
  385000    13.139975   -1.7173223  0.062843577   -1.6544788 
  386000    9.4985475   -1.7387088  0.045427994   -1.6932808 
  387000     10.70292   -1.7246435  0.051188056   -1.6734554 
  388000    10.773523   -1.7248219  0.051525724   -1.6732962 
  389000    14.056613   -1.7224186  0.067227515   -1.6551911 
  390000    13.952555   -1.7420033  0.066729843   -1.6752734 
  391000    12.123326   -1.7365208  0.057981328   -1.6785395 
  392000    8.7368861    -1.738458  0.041785253   -1.6966727 
  393000    9.3681051    -1.755528  0.044804137   -1.7107239 
  394000    5.6608953   -1.7602399  0.027073942   -1.7331659 
  395000    7.5043535   -1.7475334  0.035890512   -1.7116429 
  396000    7.2714061    -1.756565  0.034776411   -1.7217886 
  397000    7.8422183   -1.7512247  0.037506392   -1.7137184 
  398000    5.8800491   -1.7739807  0.028122072   -1.7458586 
  399000    5.2684984   -1.7683798  0.025197254   -1.7431826 
  400000    4.9362564   -1.7698273  0.023608265   -1.7462191 
  401000    5.5804087   -1.7714302  0.026689004   -1.7447411 
  402000    5.3707324   -1.7743146  0.025686201   -1.7486284 
  403000    4.8363765      -1.7749  0.023130577   -1.7517694 
  404000     4.078011   -1.7758272  0.019503599   -1.7563236 
  405000    5.9793621   -1.7643976  0.028597049   -1.7358005 
  406000    4.1603101   -1.7730996  0.019897205   -1.7532024 
  407000    4.6546383   -1.7761045  0.022261391   -1.7538431 
  408000    4.0327635   -1.7692724  0.019287197   -1.7499852 
  409000    4.2718488   -1.7738172  0.020430653   -1.7533866 
  410000    5.1182454   -1.7667801   0.02447865   -1.7423015 
  411000    4.2494633   -1.7667997  0.020323591   -1.7464761 
  412000    6.7276126   -1.7582606  0.032175651    -1.726085 
  413000    7.1227816   -1.7647925  0.034065596   -1.7307269 
  414000    7.4514667   -1.7573262  0.035637573   -1.7216886 
  415000    6.3503599   -1.7664348  0.030371392   -1.7360634 
  416000    4.8869436   -1.7704419   0.02337242   -1.7470694 
  417000    6.2445289   -1.7753612  0.029865242    -1.745496 
  418000     4.985557   -1.7739954  0.023844051   -1.7501513 
  419000    5.9378385   -1.7742992  0.028398457   -1.7459007 
  420000    4.9391148   -1.7695893  0.023621936   -1.7459673 
  421000    3.9555251   -1.7725536  0.018917795   -1.7536358 
  422000    5.8946154   -1.7699302  0.028191737   -1.7417384 
  423000    5.6168634   -1.7745314  0.026863354   -1.7476681 
  424000    4.6088795   -1.7731893  0.022042544   -1.7511467 
  425000    7.0606455   -1.7742834  0.033768422    -1.740515 
  426000    5.6562739   -1.7728998  0.027051839    -1.745848 
  427000    4.9556028   -1.7697365  0.023700792   -1.7460357 
  428000    5.6256169   -1.7723102  0.026905218    -1.745405 
  429000    4.8055558   -1.7706044  0.022983173   -1.7476212 
  430000    5.4834475   -1.7715872  0.026225275   -1.7453619 
  431000    5.7915422    -1.770176  0.027698777   -1.7424772 
  432000    4.3858658   -1.7695196  0.020975953   -1.7485436 
  433000     5.129118   -1.7766191   0.02453065   -1.7520884 
  434000    4.9211413   -1.7746828  0.023535975   -1.7511468 
  435000    4.9073556   -1.7745146  0.023470043   -1.7510445 
  436000    4.7230027   -1.7697028  0.022588352   -1.7471144 
  437000    6.3086618   -1.7680094  0.030171966   -1.7378375 
  438000    4.5441234   -1.7718413   0.02173284   -1.7501084 
  439000    4.6728473   -1.7702702  0.022348478   -1.7479217 
  440000    5.5236841   -1.7710373  0.026417711   -1.7446196 
  441000    5.1631387   -1.7696466  0.024693358   -1.7449532 
  442000    5.9769208   -1.7774839  0.028585373   -1.7488985 
  443000    5.0199756   -1.7736577  0.024008663   -1.7496491 
  444000    5.2256197   -1.7680759  0.024992182   -1.7430837 
  445000    5.2027396   -1.7745986  0.024882754   -1.7497158 
  446000    4.0401595   -1.7669866  0.019322569   -1.7476641 
  447000    5.3037173   -1.7733182  0.025365693   -1.7479525 
  448000    3.6784639   -1.7802718  0.017592715   -1.7626791 
  449000    3.9061715   -1.7796249  0.018681755   -1.7609432 
  450000    3.3353234   -1.7773964  0.015951602   -1.7614448 
  451000    3.9450791   -1.7770439  0.018867835   -1.7581761 
  452000    2.9999345   -1.7781044  0.014347563   -1.7637569 
  453000    2.6802309   -1.7798831   0.01281854   -1.7670646 
  454000     4.252974   -1.7755707  0.020340381   -1.7552303 
  455000    3.6094896   -1.7793129  0.017262837   -1.7620501 
  456000    4.0436989   -1.7755425  0.019339497    -1.756203 
  457000    3.3872572   -1.7781116  0.016199982   -1.7619116 
  458000    3.3201969   -1.7763533  0.015879258   -1.7604741 
  459000    3.1365488   -1.7796671  0.015000938   -1.7646662 
  460000    3.0455225   -1.7829642  0.014565593   -1.7683986 
  461000    3.2985858   -1.7788041    0.0157759   -1.7630282 
  462000    4.1913342   -1.7765781  0.020045581   -1.7565325 
  463000    3.3479154   -1.7805486  0.016011825   -1.7645368 
  464000    3.4183847   -1.7749677  0.016348853   -1.7586188 
  465000     3.809263   -1.7783259  0.018218278   -1.7601076 
  466000    2.8855835   -1.7800133  0.013800665   -1.7662127 
  467000    4.7394818    -1.778878  0.022667166   -1.7562108 
  468000    3.2890034   -1.7740301  0.015730071      -1.7583 
  469000    3.7134908   -1.7788264  0.017760235   -1.7610662 
  470000    4.4630379   -1.7781985  0.021345038   -1.7568534 
  471000    3.0304513   -1.7826279  0.014493513   -1.7681344 
  472000    4.0534936   -1.7788008  0.019386341   -1.7594144 
  473000    4.0075374   -1.7734253   0.01916655   -1.7542588 
  474000    4.2016797   -1.7737861   0.02009506   -1.7536911 
  475000    4.7512491   -1.7691216  0.022723445   -1.7463981 
  476000    4.6380978   -1.7688182  0.022182284   -1.7466359 
  477000    3.8215839   -1.7744936  0.018277204   -1.7562164 
  478000    4.0221629   -1.7788783  0.019236499   -1.7596418 
  479000    3.3466262   -1.7741127  0.016005659    -1.758107 
  480000    4.3822926   -1.7656565  0.020958864   -1.7446976 
  481000    5.7872861   -1.7706395  0.027678421   -1.7429611 
  482000    5.1977407   -1.7692171  0.024858847   -1.7443582 
  483000    4.4296367    -1.765992  0.021185293   -1.7448068 
  484000    5.2294941   -1.7715632  0.025010711   -1.7465525 
  485000    5.2925016   -1.7770717  0.025312052   -1.7517597 
  486000     5.786908   -1.7686529  0.027676613   -1.7409763 
  487000    6.7852691   -1.7642905    0.0324514   -1.7318391 
  488000     7.180318   -1.7519357  0.034340771   -1.7175949 
  489000    5.4395199   -1.7630924  0.026015186   -1.7370772 
  490000    7.9356035   -1.7560057  0.037953018   -1.7180526 
  491000    6.9002465   -1.7642262  0.033001294   -1.7312249 
  492000    6.6701964   -1.7546599  0.031901051   -1.7227589 
  493000    5.9409973   -1.7609092  0.028413564   -1.7324956 
  494000    6.5170275   -1.7633528  0.031168501   -1.7321843 
  495000    7.9959246   -1.7665743  0.038241512   -1.7283328 
  496000    6.6953096   -1.7595025  0.032021157   -1.7274813 
  497000    6.2164556   -1.7625284  0.029730978   -1.7327975 
  498000    8.4995855   -1.7659962  0.040650333   -1.7253459 
  499000    7.4927799   -1.7691787  0.035835159   -1.7333436 
  500000    6.5441068   -1.7636883  0.031298011   -1.7323903 
  501000    8.4640435   -1.7607485  0.040480349   -1.7202681 
  502000    5.6882684   -1.7752981  0.027204857   -1.7480932 
  503000    4.8147571   -1.7755485  0.023027179   -1.7525213 
  504000    4.7137253   -1.7711238  0.022543982   -1.7485798 
  505000    4.8046598   -1.7715735  0.022978888   -1.7485946 
  506000    5.7380683   -1.7675097  0.027443031   -1.7400666 
  507000    4.6938966   -1.7723663  0.022449149   -1.7499172 
  508000    6.6053525   -1.7720124  0.031590926   -1.7404215 
  509000    4.5700233   -1.7726938  0.021856709   -1.7508371 
  510000    4.0366071   -1.7755292   0.01930558   -1.7562236 
  511000    4.0410653   -1.7677243  0.019326901   -1.7483974 
  512000    5.2062255    -1.772143  0.024899426   -1.7472436 
  513000    5.5211693   -1.7777417  0.026405684    -1.751336 
  514000    3.8843667   -1.7753332  0.018577471   -1.7567557 
  515000    5.1623324   -1.7723014  0.024689502   -1.7476119 
  516000    5.2323536   -1.7652957  0.025024387   -1.7402713 
  517000    3.9277449   -1.7761915  0.018784932   -1.7574066 
  518000    3.7574603   -1.7736939  0.017970525   -1.7557234 
  519000     5.663256   -1.7771265  0.027085232   -1.7500412 
  520000    4.5116314   -1.7778824  0.021577443   -1.7563049 
  521000    3.0406827   -1.7757546  0.014542446   -1.7612122 
  522000    3.8814963   -1.7809945  0.018563742   -1.7624308 
  523000    4.0891913   -1.7781897   0.01955707   -1.7586327 
  524000    3.1399694    -1.776717  0.015017297   -1.7616997 
  525000    3.4728118   -1.7799993  0.016609158   -1.7633901 
  526000    4.6123324   -1.7844281  0.022059058    -1.762369 
  527000    3.4961097   -1.7797713  0.016720583   -1.7630507 
  528000    4.5578881   -1.7810503  0.021798671   -1.7592517 
  529000     3.546792   -1.7781161  0.016962977   -1.7611531 
  530000    3.5809325   -1.7786387  0.017126258   -1.7615124 
  531000    3.5078047   -1.7812609  0.016776516   -1.7644844 
  532000    4.2162383   -1.7753683  0.020164688   -1.7552036 
  533000    3.4141857   -1.7802649  0.016328771   -1.7639361 
  534000    3.9961874   -1.7753008  0.019112267   -1.7561886 
  535000    3.8494432   -1.7771777  0.018410445   -1.7587673 
  536000    3.0773053   -1.7766715  0.014717598   -1.7619539 
  537000    3.1953405    -1.780387  0.015282116   -1.7651049 
  538000    3.5591362   -1.7726557  0.017022015   -1.7556337 
  539000    4.3327424   -1.7782019  0.020721884   -1.7574801 
  540000    2.8003808   -1.7809706  0.013393172   -1.7675774 
  541000    2.9963964   -1.7828489  0.014330641   -1.7685182 
  542000    3.6202744   -1.7779943  0.017314416   -1.7606799 
  543000    3.4931572    -1.780098  0.016706462   -1.7633916 
  544000    3.5545878   -1.7799061  0.017000262   -1.7629058 
  545000    3.2826412   -1.7810908  0.015699643   -1.7653912 
  546000    4.1387425    -1.778929  0.019794055   -1.7591349 
  547000    3.4436489    -1.774648  0.016469683   -1.7581783 
  548000     3.316516   -1.7801207  0.015861654   -1.7642591 
  549000    3.3437381   -1.7772857  0.015991847   -1.7612938 
  550000    3.3190803   -1.7751379  0.015873918    -1.759264 
  551000    3.5141678   -1.7820152  0.016806948   -1.7652082 
  552000    3.0309045   -1.7767177  0.014495681    -1.762222 
  553000    4.2109275   -1.7785341  0.020139289   -1.7583948 
  554000    3.6244669   -1.7844201  0.017334467   -1.7670856 
  555000    3.4768026   -1.7838312  0.016628245    -1.767203 
  556000    3.5731463   -1.7761306   0.01708902   -1.7590416 
  557000    3.6608084   -1.7779458  0.017508275   -1.7604375 
  558000     4.458317   -1.7748399   0.02132246   -1.7535174 
  559000     4.751813   -1.7726256  0.022726141   -1.7498994 
  560000    5.0137096   -1.7787067  0.023978695    -1.754728 
  561000    3.1831314    -1.777631  0.015223725   -1.7624073 
  562000    4.2884009   -1.7765525  0.020509815   -1.7560427 
  563000    3.6490079   -1.7835438  0.017451838    -1.766092 
  564000    3.4956254   -1.7769343  0.016718267    -1.760216 
  565000    4.0009894   -1.7748524  0.019135233   -1.7557171 
  566000    2.7757104    -1.774943  0.013275183   -1.7616678 
  567000    3.4567827   -1.7795877  0.016532496   -1.7630552 
  568000    3.8292483    -1.777571   0.01831386   -1.7592572 
  569000    4.1040545   -1.7853369  0.019628155   -1.7657087 
  570000    3.4720227   -1.7828964  0.016605384    -1.766291 
  571000     3.438479   -1.7791257  0.016444957   -1.7626808 
  572000    3.8008761   -1.7760957  0.018178167   -1.7579176 
  573000    3.1640471   -1.7810026  0.015132452   -1.7658702 
  574000    3.7176257   -1.7764768  0.017780011   -1.7586968 
  575000    4.3583882   -1.7855051  0.020844538   -1.7646606 
  576000    2.1260883   -1.7780764  0.010168284   -1.7679081 
  577000    2.0610962     -1.78453 0.0098574509   -1.7746726 
  578000    2.3617451   -1.7857961  0.011295342   -1.7745008 
  579000    2.2914239   -1.7849614  0.010959022   -1.7740024 
  580000    3.0801145   -1.7853285  0.014731034   -1.7705975 
  581000    3.2755247   -1.7855358  0.015665608   -1.7698702 
  582000    2.5181851   -1.7833918  0.012043536   -1.7713482 
  583000    2.5908322   -1.7857952   0.01239098   -1.7734043 
  584000    2.8209404     -1.78514  0.013491501   -1.7716485 
  585000    2.4701066   -1.7855357  0.011813595   -1.7737221 
  586000    2.7088926   -1.7830024  0.012955618   -1.7700468 
  587000    3.0414239    -1.783898  0.014545991    -1.769352 
  588000    2.6910487   -1.7844135  0.012870278   -1.7715432 
  589000    2.5405845   -1.7878511  0.012150664   -1.7757004 
  590000    2.2089689   -1.7870538  0.010564671   -1.7764891 
  591000    2.4538041   -1.7852166  0.011735626   -1.7734809 
  592000    2.4938663   -1.7855994  0.011927228   -1.7736722 
  593000     2.096773   -1.7810665   0.01002808   -1.7710385 
  594000    2.7819679   -1.7873881   0.01330511    -1.774083 
  595000    3.0954065   -1.7876928   0.01480417   -1.7728886 
  596000     2.471425   -1.7840942    0.0118199   -1.7722743 
  597000    4.7011379   -1.7718444  0.022483781   -1.7493606 
  598000    3.3488011   -1.7787813  0.016016061   -1.7627652 
  599000    3.8693109   -1.7813343  0.018505465   -1.7628289 
  600000    3.6801545    -1.784003    0.0176008   -1.7664022 
  601000    3.7378661    -1.778222  0.017876813   -1.7603452 
  602000    3.9059746   -1.7768413  0.018680813   -1.7581605 
  603000    4.2570179   -1.7796496  0.020359722   -1.7592898 
  604000    4.0692904   -1.7841724  0.019461892   -1.7647105 
  605000     3.735628   -1.7800786  0.017866109   -1.7622125 
  606000    3.1560303   -1.7777089  0.015094111   -1.7626148 
  607000     3.159507    -1.778323  0.015110738   -1.7632123 
  608000    3.9833789   -1.7780848  0.019051009   -1.7590338 
  609000    3.1609668   -1.7744446   0.01511772   -1.7593269 
  610000    4.2000035   -1.7781138  0.020087043   -1.7580267 
  611000    3.4608383   -1.7770675  0.016551893   -1.7605156 
  612000    3.5345601   -1.7744143  0.016904477   -1.7575099 
  613000    4.7891489   -1.7748625  0.022904705   -1.7519578 
  614000     4.622448   -1.7663878  0.022107437   -1.7442804 
  615000    5.8028134   -1.7595885  0.027752683   -1.7318358 
  616000    5.5813001   -1.7617119  0.026693268   -1.7350186 
  617000    6.2763821   -1.7625209  0.030017584   -1.7325033 
  618000    5.5950277   -1.7637118  0.026758921   -1.7369529 
  619000    5.4221115   -1.7477215  0.025931928   -1.7217895 
  620000    6.8048373   -1.7572527  0.032544987   -1.7247077 
  621000    7.3633997   -1.7724922  0.035216382   -1.7372759 
  622000    6.6004797   -1.7567736  0.031567622   -1.7252059 
  623000    6.9966972   -1.7607392  0.033462582   -1.7272767 
  624000    5.5770188    -1.754499  0.026672792   -1.7278262 
  625000    7.4348837   -1.7635821  0.035558264   -1.7280238 
  626000    7.4912985   -1.7544107  0.035828074   -1.7185826 
  627000    5.4984431    -1.766715  0.026296993    -1.740418 
  628000    6.1317691   -1.7621482  0.029325954   -1.7328223 
  629000     9.459362   -1.7643933  0.045240585   -1.7191527 
  630000    6.5809027   -1.7552782  0.031473992   -1.7238042 
  631000    6.6879289   -1.7651078  0.031985858    -1.733122 
  632000    6.6862408   -1.7620866  0.031977785   -1.7301088 
  633000    6.5439411   -1.7545017  0.031297219   -1.7232045 
  634000    6.9227392   -1.7559013  0.033108868   -1.7227924 
  635000    5.6230425   -1.7614173  0.026892905   -1.7345244 
  636000    7.9177726   -1.7656637   0.03786774    -1.727796 
  637000    5.9858012    -1.757068  0.028627845   -1.7284401 
  638000    9.2665375   -1.7487877  0.044318377   -1.7044694 
  639000    8.7664121   -1.7477271  0.041926465   -1.7058006 
  640000    10.797262   -1.7514802  0.051639259   -1.6998409 
  641000    9.7386365   -1.7545592   0.04657625    -1.707983 
  642000    5.4916224   -1.7658272  0.026264372   -1.7395628 
  643000    6.5507656   -1.7636192  0.031329858   -1.7322893 
  644000    5.8601391   -1.7552064   0.02802685   -1.7271796 
  645000    6.7830828   -1.7724218  0.032440944   -1.7399808 
  646000    4.8979856   -1.7740212   0.02342523    -1.750596 
  647000    3.7312778   -1.7806162  0.017845304   -1.7627709 
  648000    3.4925317   -1.7768017  0.016703471   -1.7600982 
  649000     3.560434   -1.7764292  0.017028222    -1.759401 
  650000    3.8779259   -1.7838929  0.018546667   -1.7653462 
  651000      3.09876   -1.7862308  0.014820208   -1.7714106 
  652000    2.5715263   -1.7846607  0.012298647   -1.7723621 
  653000    2.6426821   -1.7873042  0.012638958   -1.7746653 
  654000    2.5602554   -1.7800029  0.012244742   -1.7677582 
  655000    1.9846573   -1.7847686 0.0094918724   -1.7752767 
  656000    2.1366961   -1.7841361  0.010219017   -1.7739171 
  657000    2.4645873   -1.7846667  0.011787197   -1.7728795 
  658000    2.9855603   -1.7853323  0.014278816   -1.7710534 
  659000    2.8530805   -1.7854054  0.013645215   -1.7717602 
  660000    2.9957507   -1.7806912  0.014327554   -1.7663636 
  661000    2.3107001   -1.7854574  0.011051213   -1.7744062 
  662000    2.5793225   -1.7845341  0.012335933   -1.7721982 
  663000    2.6288131   -1.7830132  0.012572628   -1.7704405 
  664000    2.3849507   -1.7813962  0.011406326   -1.7699899 
  665000    2.7584857   -1.7846032  0.013192804   -1.7714104 
  666000     2.897631   -1.7857699  0.013858283   -1.7719116 
  667000    2.1930565   -1.7872825  0.010488567   -1.7767939 
  668000    2.5767829   -1.7825006  0.012323787   -1.7701768 
  669000    2.7477686   -1.7802696  0.013141548   -1.7671281 
  670000     2.413429   -1.7864272  0.011542527   -1.7748847 
  671000    3.1347412   -1.7860984  0.014992293   -1.7711061 
  672000    2.3481773   -1.7865412  0.011230452   -1.7753108 
  673000    2.1346122    -1.784435   0.01020905   -1.7742259 
  674000    2.9857597   -1.7821396   0.01427977   -1.7678599 
  675000    2.3031118   -1.7829757  0.011014921   -1.7719608 
  676000    2.2567043   -1.7901527  0.010792971   -1.7793598 
  677000    2.8336676   -1.7841144  0.013552371    -1.770562 
  678000    2.8474973   -1.7831167  0.013618513   -1.7694982 
  679000    2.0676462   -1.7778057 0.0098887771    -1.767917 
  680000    3.6833652   -1.7743342  0.017616156   -1.7567181 
  681000     3.926896   -1.7787033  0.018780872   -1.7599225 
  682000     4.096951   -1.7821496  0.019594182   -1.7625554 
  683000    4.7932283   -1.7811873  0.022924215   -1.7582631 
  684000    3.2470908   -1.7786214  0.015529619   -1.7630918 
  685000    3.4394701    -1.776258  0.016449697   -1.7598083 
  686000    3.4251268   -1.7756093  0.016381098   -1.7592282 
  687000    3.9707192   -1.7693948  0.018990462   -1.7504044 
  688000    4.8816357   -1.7681702  0.023347035   -1.7448232 
  689000    6.7540456   -1.7579828   0.03230207   -1.7256807 
  690000     6.925857   -1.7630392  0.033123779   -1.7299154 
  691000    6.5115947   -1.7663749  0.031142518   -1.7352323 
  692000     6.747929   -1.7627703  0.032272816   -1.7304975 
  693000    6.2298854   -1.7587073  0.029795208   -1.7289121 
  694000    5.8045876   -1.7551972  0.027761168    -1.727436 
  695000    6.7661515   -1.7675827  0.032359968   -1.7352227 
  696000    6.6778861   -1.7662309  0.031937828    -1.734293 
  697000    6.5132935   -1.7546805  0.031150643   -1.7235299 
  698000    6.3144931   -1.7637394  0.030199855   -1.7335396 
  699000    6.0456524   -1.7617614   0.02891409   -1.7328473 
  700000    6.2043651   -1.7678799  0.029673154   -1.7382068 
  701000    5.7820686   -1.7641624  0.027653468   -1.7365089 
  702000    6.5427226    -1.753012  0.031291391   -1.7217207 
  703000    7.5608943   -1.7656342  0.036160925   -1.7294733 
  704000    9.0064276   -1.7633094  0.043074369   -1.7202351 
  705000    5.6915471   -1.7606705  0.027220537     -1.73345 
  706000    5.4051505   -1.7595353   0.02585081   -1.7336845 
  707000    6.7164151   -1.7601233  0.032122097   -1.7280012 
  708000    5.4958325   -1.7700195  0.026284508   -1.7437349 
  709000    5.3668224   -1.7661064  0.025667501   -1.7404389 
  710000    7.1398246   -1.7591977  0.034147106   -1.7250506 
  711000    6.9094873   -1.7638246  0.033045489   -1.7307791 
  712000    5.1698229   -1.7574439  0.024725326   -1.7327186 
  713000    12.097375   -1.7521869  0.057857211   -1.6943297 
  714000    10.457849   -1.7426962  0.050015972   -1.6926802 
  715000    9.3508088   -1.7559332  0.044721415   -1.7112118 
  716000    7.3689938   -1.7561864  0.035243136   -1.7209433 
  717000    9.0371823   -1.7443431  0.043221457   -1.7011216 
  718000     10.78261   -1.7406859  0.051569186   -1.6891167 
  719000    9.3608884   -1.7604105  0.044769622   -1.7156408 
  720000    8.8229044   -1.7373937  0.042196647    -1.695197 
  721000    10.267162   -1.7139108  0.049103992   -1.6648068 
  722000    12.342333    -1.748758  0.059028756   -1.6897292 
  723000    7.9016071   -1.7568864  0.037790426    -1.719096 
  724000     8.492779   -1.7440309   0.04061778   -1.7034131 
  725000    9.4437002   -1.7579561   0.04516568   -1.7127904 
  726000    5.8650104   -1.7488556  0.028050148   -1.7208055 
  727000    6.8212293   -1.7666703  0.032623384   -1.7340469 
  728000    5.4413075   -1.7794848  0.026023735   -1.7534611 
  729000    5.2097791     -1.76726  0.024916422   -1.7423436 
  730000    4.7662582   -1.7660076  0.022795227   -1.7432124 
  731000    5.0711838   -1.7746798  0.024253572   -1.7504262 
  732000      5.54572   -1.7680622  0.026523101   -1.7415391 
  733000    7.1549629   -1.7619944  0.034219507   -1.7277749 
  734000    9.9890825   -1.7483033   0.04777404   -1.7005293 
  735000    8.4107445   -1.7431504   0.04022544    -1.702925 
  736000    7.8677643   -1.7507125  0.037628569    -1.713084 
  737000    10.895981   -1.7552785  0.052111395   -1.7031671 
  738000    8.3464484   -1.7448491  0.039917936   -1.7049311 
  739000    11.224273   -1.7357614  0.053681492   -1.6820799 
  740000    13.885586   -1.7331814  0.066409554   -1.6667718 
  741000    10.307441   -1.7308049  0.049296628   -1.6815083 
  742000    13.514963   -1.7311665  0.064637006   -1.6665294 
  743000    9.6354568    -1.734036   0.04608278   -1.6879532 
  744000    12.430876   -1.7185239  0.059452222   -1.6590717 
  745000    15.463508   -1.7016767  0.073956167   -1.6277206 
  746000    13.841574   -1.7314871  0.066199061    -1.665288 
  747000    19.571144    -1.709632  0.093601448   -1.6160306 
  748000    14.206133   -1.7214784  0.067942613   -1.6535358 
  749000    19.366044   -1.6962498  0.092620535   -1.6036293 
  750000    16.205931   -1.7212475  0.077506895   -1.6437406 
  751000    13.202178   -1.7202828  0.063141073   -1.6571418 
  752000    15.510901   -1.7272648   0.07418283    -1.653082 
  753000    16.001527    -1.724573  0.076529309   -1.6480437 
  754000    14.980735    -1.714932  0.071647245   -1.6432848 
  755000    11.312815   -1.7371737  0.054104958   -1.6830688 
  756000    12.408582   -1.7239746  0.059345599    -1.664629 
  757000    11.801106   -1.7342002   0.05644027     -1.67776 
  758000    11.340308   -1.7396351  0.054236444   -1.6853986 
  759000    9.4220885   -1.7289785   0.04506232   -1.6839162 
  760000      12.1184   -1.7210908  0.057957767   -1.6631331 
  761000    14.367209   -1.7425269   0.06871298   -1.6738139 
  762000    10.626439   -1.7349539  0.050822279   -1.6841316 
  763000    12.387036   -1.7318254  0.059242551   -1.6725828 
  764000    10.559968   -1.7228142  0.050504372   -1.6723098 
  765000    13.726083   -1.7315472  0.065646711   -1.6659005 
  766000    13.410574   -1.7496084  0.064137751   -1.6854706 
  767000    11.786055   -1.7158826  0.056368287   -1.6595143 
  768000    14.478408   -1.7268685  0.069244803   -1.6576237 
  769000    12.237069   -1.7348312  0.058525317   -1.6763059 
  770000    12.465249   -1.7234214  0.059616615   -1.6638048 
  771000    10.047696   -1.7260787  0.048054366   -1.6780243 
  772000    13.551573   -1.7355599  0.064812099   -1.6707478 
  773000    10.389782   -1.7243761  0.049690433   -1.6746857 
  774000    10.450183   -1.7297429  0.049979309   -1.6797636 
  775000    13.984576   -1.7246065  0.066882987   -1.6577235 
  776000    9.4225084    -1.735473  0.045064328   -1.6904087 
  777000    14.981831   -1.7276216  0.071652487   -1.6559691 
  778000    11.178531   -1.7361827  0.053462724     -1.68272 
  779000    13.846788   -1.7302028  0.066223998   -1.6639788 
  780000    11.448378   -1.7315335  0.054753303   -1.6767802 
  781000    13.700867   -1.7302976  0.065526113   -1.6647715 
  782000     8.435737   -1.7284556   0.04034497   -1.6881106 
  783000    15.220763   -1.7292149  0.072795206   -1.6564197 
  784000    12.252328   -1.7401765  0.058598294   -1.6815782 
  785000    9.7222291   -1.7225383  0.046497779   -1.6760405 
  786000    11.131984   -1.7370061  0.053240109    -1.683766 
  787000    12.167698   -1.7306032  0.058193541   -1.6724097 
  788000    12.591682   -1.7141658  0.060221296   -1.6539445 
  789000    12.443694    -1.741205  0.059513525   -1.6816915 
  790000    9.4921292   -1.7273933  0.045397298    -1.681996 
  791000    12.280684   -1.7139024  0.058733913   -1.6551685 
  792000    11.425377   -1.7461705    0.0546433   -1.6915272 
  793000    12.063957   -1.7296461  0.057697386   -1.6719487 
  794000     13.17417   -1.7284729   0.06300712   -1.6654658 
  795000    13.149371   -1.7344326  0.062888515   -1.6715441 
  796000    9.0751074   -1.7498686  0.043402839   -1.7064658 
  797000    9.2581683   -1.7519052   0.04427835   -1.7076269 
  798000     7.900137   -1.7397528  0.037783395   -1.7019694 
  799000    10.010163   -1.7546043   0.04787486   -1.7067294 
  800000    8.7049668   -1.7555616  0.041632595    -1.713929 
  801000    7.9891549   -1.7462254  0.038209135   -1.7080163 
  802000    8.8021659   -1.7487884  0.042097462   -1.7066909 
  803000    7.9978545   -1.7549867  0.038250742   -1.7167359 
  804000    8.9098185   -1.7560363  0.042612324    -1.713424 
  805000    8.6361799    -1.747524  0.041303613   -1.7062204 
  806000    10.903196   -1.7558544    0.0521459   -1.7037085 
  807000    7.8458049   -1.7502566  0.037523546   -1.7127331 
  808000    8.6128433   -1.7562793  0.041192003   -1.7150873 
  809000    8.3715424   -1.7342897  0.040037951   -1.6942518 
  810000    11.301177   -1.7423261  0.054049298   -1.6882768 
  811000    7.9398124   -1.7671471  0.037973148   -1.7291739 
  812000    9.9258556    -1.737703  0.047471649   -1.6902314 
  813000    10.589495   -1.7483169  0.050645585   -1.6976713 
  814000    9.0097237   -1.7416148  0.043090133   -1.6985247 
  815000    11.172876    -1.724902  0.053435678   -1.6714663 
  816000    10.790111   -1.7368506   0.05160506   -1.6852455 
  817000    11.752994   -1.7159588  0.056210166   -1.6597486 
  818000    11.572528    -1.745191  0.055347068   -1.6898439 
  819000    13.598895   -1.7252421  0.065038422   -1.6602037 
  820000    14.893903   -1.7283357  0.071231959   -1.6571037 
  821000    11.997622    -1.735034   0.05738013   -1.6776539 
  822000    11.228216   -1.7259559  0.053700348   -1.6722556 
  823000    10.215728   -1.7351567  0.048858001   -1.6862987 
  824000    11.591668   -1.7155572  0.055438608   -1.6601186 
  825000    14.363963   -1.7331219  0.068697455   -1.6644245 
  826000     13.32484   -1.7224291  0.063727717   -1.6587014 
  827000    13.916869   -1.7414369  0.066559172   -1.6748777 
  828000    10.601319   -1.7501545  0.050702135   -1.6994524 
  829000    7.6060568   -1.7568238   0.03637692   -1.7204469 
  830000    10.316148   -1.7394052   0.04933827   -1.6900669 
  831000    8.0685973   -1.7534697  0.038589078   -1.7148806 
  832000    8.3635066    -1.754082  0.039999519   -1.7140825 
  833000    10.122375   -1.7448823  0.048411528   -1.6964708 
  834000    8.5990398   -1.7542807  0.041125986   -1.7131547 
  835000    8.1816995    -1.755073  0.039130004    -1.715943 
  836000    10.650563   -1.7400366  0.050937655   -1.6890989 
  837000    7.4957369   -1.7518765  0.035849301   -1.7160272 
  838000    10.545865   -1.7370366  0.050436922   -1.6865997 
  839000    10.095953   -1.7415441  0.048285159   -1.6932589 
  840000    10.302581   -1.7462736  0.049273386   -1.6970002 
  841000    8.1408774   -1.7416691  0.038934767   -1.7027343 
  842000    8.5739963   -1.7443612  0.041006212   -1.7033549 
  843000    9.3202604   -1.7500484  0.044575314   -1.7054731 
  844000    10.338893   -1.7503019  0.049447054   -1.7008548 
  845000    8.6301417    -1.753212  0.041274735   -1.7119373 
  846000    6.7530476   -1.7549763  0.032297297    -1.722679 
  847000    7.4823742    -1.760208  0.035785392   -1.7244226 
  848000    6.7272279   -1.7684156  0.032173811   -1.7362418 
  849000    5.5918843   -1.7558565  0.026743888   -1.7291126 
  850000    6.9556335   -1.7574559  0.033266189   -1.7241897 
  851000    6.2290251   -1.7625257  0.029791093   -1.7327347 
  852000    8.5701092   -1.7603832  0.040987622   -1.7193956 
  853000    7.8630431     -1.76647  0.037605989    -1.728864 
  854000    5.5546562   -1.7558471   0.02656584   -1.7292812 
  855000    5.7848501   -1.7581758  0.027666771   -1.7305091 
  856000    7.2423345   -1.7705894  0.034637372   -1.7359521 
  857000    4.5088925   -1.7631499  0.021564343   -1.7415855 
  858000    6.0148158   -1.7585877  0.028766611   -1.7298211 
  859000    7.1686557   -1.7681078  0.034284995   -1.7338228 
  860000    6.3269993   -1.7649762  0.030259667   -1.7347165 
  861000     5.025123   -1.7607078  0.024033281   -1.7366745 
  862000    7.3885701   -1.7626014  0.035336763   -1.7272646 
  863000    6.5446964    -1.760797  0.031300831   -1.7294962 
  864000    6.5883716   -1.7707288  0.031509713   -1.7392191 
  865000    6.6664558   -1.7680206   0.03188316   -1.7361374 
  866000    6.8465204   -1.7561259  0.032744342   -1.7233815 
  867000    6.4615971   -1.7577225  0.030903398   -1.7268191 
  868000    5.6398267    -1.769768  0.026973178   -1.7427948 
  869000    8.9633156   -1.7668904  0.042868181   -1.7240222 
  870000     6.151548   -1.7609476  0.029420549    -1.731527 
  871000    7.9043856   -1.7589568  0.037803715   -1.7211531 
  872000    6.9776767   -1.7685569  0.033371614   -1.7351853 
  873000    4.5307604   -1.7705854   0.02166893   -1.7489165 
  874000    4.7815464   -1.7732404  0.022868345   -1.7503721 
  875000    4.3472072    -1.771132  0.020791063    -1.750341 
  876000    4.9688092   -1.7661773  0.023763953   -1.7424134 
  877000    3.8534821    -1.773453  0.018429761   -1.7550232 
  878000    4.3830437   -1.7736152  0.020962456   -1.7526527 
  879000    4.1990678   -1.7724596  0.020082568    -1.752377 
  880000    5.4509891    -1.769939  0.026070039    -1.743869 
  881000    5.5671057   -1.7656763  0.026625381    -1.739051 
  882000    4.5700282   -1.7756016  0.021856733   -1.7537449 
  883000    3.7442101   -1.7740067  0.017907154   -1.7560996 
  884000    4.7530466   -1.7716359  0.022732041   -1.7489039 
  885000    5.5332326   -1.7680667  0.026463379   -1.7416033 
  886000    4.6290189   -1.7698157  0.022138863   -1.7476769 
  887000    6.0786076   -1.7785161  0.029071703   -1.7494444 
  888000    3.3425872   -1.7804041  0.015986342   -1.7644177 
  889000     4.029917   -1.7735593  0.019273583   -1.7542857 
  890000    4.2242796   -1.7782527  0.020203147   -1.7580496 
  891000    3.5582257   -1.7766144   0.01701766   -1.7595967 
  892000    3.3564522   -1.7837276  0.016052653   -1.7676749 
  893000    3.6647617   -1.7797996  0.017527182   -1.7622725 
  894000    3.7051071   -1.7784353  0.017720139   -1.7607152 
  895000    3.5961578   -1.7742534  0.017199075   -1.7570544 
  896000    3.6548858   -1.7840657   0.01747995   -1.7665857 
  897000    2.8662031   -1.7860438  0.013707976   -1.7723358 
  898000    2.8159751   -1.7833236  0.013467754   -1.7698558 
  899000     2.986134   -1.7836074   0.01428156   -1.7693258 
  900000    3.2606531   -1.7825905  0.015594482    -1.766996 
  901000    2.5212592   -1.7782895  0.012058238   -1.7662313 
  902000    4.3316047   -1.7776497  0.020716442   -1.7569332 
  903000    2.9628735   -1.7782701  0.014170314   -1.7640998 
  904000    3.4631287   -1.7794181  0.016562847   -1.7628552 
  905000    3.6139814   -1.7777051  0.017284319   -1.7604208 
  906000    4.3074513   -1.7778685  0.020600926   -1.7572676 
  907000    3.5670722    -1.774012   0.01705997   -1.7569521 
  908000      4.11058   -1.7747961  0.019659364   -1.7551368 
  909000    2.7831768      -1.7815  0.013310892   -1.7681892 
  910000    4.0460807   -1.7760711  0.019350888   -1.7567202 
  911000    3.0350684   -1.7788718  0.014515595   -1.7643562 
  912000    3.7464022   -1.7785118  0.017917638   -1.7605941 
  913000    3.6944738   -1.7831173  0.017669284    -1.765448 
  914000    3.6780323   -1.7846989   0.01759065   -1.7671082 
  915000    4.1154476   -1.7789455  0.019682644   -1.7592628 
  916000    2.5915814   -1.7730966  0.012394563   -1.7607021 
  917000    3.7114561   -1.7780657  0.017750504   -1.7603152 
  918000    3.8741051   -1.7794147  0.018528393   -1.7608863 
  919000    3.8632917   -1.7798888  0.018476677   -1.7614121 
  920000    4.1194432   -1.7794654  0.019701754   -1.7597636 
  921000     4.021439   -1.7769098  0.019233036   -1.7576768 
  922000    3.2224447   -1.7767418  0.015411746     -1.76133 
  923000    3.6780718   -1.7837279   0.01759084    -1.766137 
  924000    3.4664112   -1.7785257  0.016578546   -1.7619472 
  925000    3.5298377   -1.7770036  0.016881892   -1.7601218 
  926000    3.6736521     -1.77594  0.017569702   -1.7583703 
  927000    3.5809566   -1.7809002  0.017126374   -1.7637738 
  928000    3.4615096    -1.776628  0.016555104   -1.7600729 
  929000    3.6777745   -1.7777938  0.017589418   -1.7602044 
  930000    4.1817062    -1.775816  0.019999534   -1.7558165 
  931000    3.6085626   -1.7768597  0.017258403   -1.7596013 
  932000    3.6818094   -1.7824497  0.017608715    -1.764841 
  933000    4.2044319    -1.779048  0.020108223   -1.7589398 
  934000    3.5467642    -1.777457  0.016962844   -1.7604942 
  935000    3.2020632   -1.7787025  0.015314269   -1.7633882 
  936000    3.3519723   -1.7779248  0.016031228   -1.7618936 
  937000    3.6827944   -1.7776072  0.017613426   -1.7599938 
  938000     3.196964   -1.7772887  0.015289881   -1.7619988 
  939000    3.6446179   -1.7749528  0.017430842   -1.7575219 
  940000    4.2258994   -1.7714577  0.020210894   -1.7512468 
  941000    6.0000656   -1.7688871  0.028696066    -1.740191 
  942000    4.9403964   -1.7691151  0.023628065    -1.745487 
  943000    5.3091313   -1.7703387  0.025391586   -1.7449471 
  944000    4.5960029   -1.7741483   0.02198096   -1.7521673 
  945000    5.3512639   -1.7675423  0.025593091   -1.7419492 
  946000    6.1381601   -1.7661304   0.02935652   -1.7367739 
  947000    5.5889556   -1.7673366  0.026729881   -1.7406067 
  948000    5.4442592   -1.7770946  0.026037852   -1.7510568 
  949000    4.7313562   -1.7724286  0.022628304   -1.7498003 
  950000     4.360721   -1.7750106  0.020855695   -1.7541549 
  951000    5.1664852   -1.7673912  0.024709363   -1.7426818 
  952000     5.334153   -1.7755056  0.025511255   -1.7499944 
  953000     6.262368    -1.772593   0.02995056   -1.7426424 
  954000    5.6174093   -1.7725215  0.026865964   -1.7456555 
  955000    4.8940906    -1.768445  0.023406602   -1.7450384 
  956000    4.8794141   -1.7669971   0.02333641   -1.7436607 
  957000    4.6050956   -1.7583758  0.022024447   -1.7363513 
  958000     12.04562   -1.7428463  0.057609687   -1.6852366 
  959000     7.813168   -1.7424446  0.037367455   -1.7050772 
  960000     8.320479   -1.7477551  0.039793734   -1.7079613 
  961000    10.172398   -1.7458286  0.048650767   -1.6971779 
  962000      10.1926   -1.7435116  0.048747385   -1.6947642 
  963000    11.712028   -1.7316771  0.056014244   -1.6756628 
  964000     11.78795   -1.7256278  0.056377349   -1.6692504 
  965000    12.656879   -1.7398899   0.06053311   -1.6793568 
  966000    12.778677   -1.7327669  0.061115626   -1.6716512 
  967000    14.366173    -1.731501  0.068708021   -1.6627929 
  968000    10.278189   -1.7067208  0.049156729    -1.657564 
  969000    11.181349   -1.7371403  0.053476204   -1.6836641 
  970000    12.687347   -1.7288116  0.060678827   -1.6681328 
  971000    11.448293   -1.7216904  0.054752894   -1.6669375 
  972000     10.62749   -1.7371692  0.050827302   -1.6863419 
  973000    7.5897979   -1.7497292   0.03629916   -1.7134301 
  974000    8.7187805   -1.7517364  0.041698661   -1.7100377 
  975000    10.185133   -1.7352043  0.048711676   -1.6864926 
  976000      12.6293   -1.7236855  0.060401211   -1.6632843 
  977000     12.14871   -1.7148342  0.058102728   -1.6567314 
  978000     12.40253   -1.7390865  0.059316654   -1.6797698 
  979000    10.694121   -1.7227872  0.051145973   -1.6716412 
  980000    14.222599   -1.7247948  0.068021364   -1.6567734 
  981000    14.231359   -1.6906601  0.068063261   -1.6225969 
  982000    12.460318   -1.7117963  0.059593031   -1.6522033 
  983000    16.671147   -1.7184915  0.079731848   -1.6387596 
  984000    19.554089   -1.7157186   0.09351988   -1.6221987 
  985000    17.596105    -1.717095  0.084155579   -1.6329394 
  986000    14.386464   -1.7074565  0.068805066   -1.6386514 
  987000    17.242361   -1.7118572  0.082463753   -1.6293935 
  988000     14.56151     -1.69988  0.069642247   -1.6302377 
  989000    15.870248   -1.7207096  0.075901449   -1.6448082 
  990000    14.097717    -1.705858  0.067424099   -1.6384339 
  991000    12.050836   -1.7047819  0.057634636   -1.6471472 
  992000    15.287219   -1.7040601  0.073113041   -1.6309471 
  993000    14.299856   -1.7362592  0.068390855   -1.6678683 
  994000    11.621393   -1.7458252  0.055580768   -1.6902444 
  995000    11.191368   -1.7105141  0.053524123   -1.6569899 
  996000    15.275803   -1.7128809  0.073058442   -1.6398224 
  997000    19.991647    -1.713229   0.09561256   -1.6176164 
  998000    16.272255   -1.7074076  0.077824099   -1.6295835 
  999000    16.168558   -1.6880341  0.077328155   -1.6107059 
 1000000    17.981118   -1.7156465  0.085996952   -1.6296496 
 1001000     15.97062   -1.7178468  0.076381492   -1.6414653 
 1002000     18.24658   -1.6996461  0.087266557   -1.6123795 
 1003000    14.986595   -1.7238447   0.07167527   -1.6521694 
 1004000    16.466188   -1.7073158  0.078751609   -1.6285642 
 1005000    19.301497   -1.7041354  0.092311831   -1.6118236 
 1006000    17.601432   -1.7100907  0.084181055   -1.6259096 
 1007000    15.265705   -1.7149104  0.073010148   -1.6419003 
 1008000    12.513934   -1.7026929  0.059849456   -1.6428434 
 1009000    18.205562    -1.708552  0.087070382   -1.6214816 
 1010000    16.675826   -1.7157854  0.079754227   -1.6360311 
 1011000    13.874751   -1.7145036  0.066357736   -1.6481459 
 1012000    11.227058   -1.6981927  0.053694812   -1.6444979 
 1013000     20.70494   -1.6994125  0.099023971   -1.6003886 
 1014000    15.904699   -1.7335093  0.076066219   -1.6574431 
 1015000    14.824132   -1.6889669  0.070898271   -1.6180686 
 1016000    13.715652   -1.7133296  0.065596823   -1.6477328 
 1017000    17.717286   -1.7128735  0.084735142   -1.6281383 
 1018000    17.290932   -1.7042615  0.082696048   -1.6215655 
 1019000    16.917275   -1.6966232  0.080908987   -1.6157142 
 1020000    16.715219   -1.7134385   0.07994263   -1.6334958 
 1021000    12.799661   -1.7036113  0.061215985   -1.6423953 
 1022000    14.466657   -1.7086825  0.069188602   -1.6394939 
 1023000    14.167859   -1.7109714  0.067759563   -1.6432118 
 1024000    14.640462   -1.7173807  0.070019846   -1.6473609 
 1025000    16.566671   -1.6987534  0.079232181   -1.6195212 
 1026000    11.106448   -1.7212825  0.053117979   -1.6681645 
 1027000     17.63508   -1.7102331  0.084341979   -1.6258911 
 1028000    12.377639   -1.7018051  0.059197612   -1.6426075 
 1029000    19.262314   -1.7100563  0.092124429   -1.6179319 
 1030000    16.215216   -1.7178409  0.077551305   -1.6402896 
 1031000    14.914732   -1.7061342  0.071331578   -1.6348027 
 1032000     18.30748   -1.6929229  0.087557818   -1.6053651 
 1033000     21.04051   -1.7122783   0.10062888   -1.6116494 
 1034000    14.254746   -1.7123712  0.068175108   -1.6441961 
 1035000    17.836484   -1.6993574  0.085305219   -1.6140522 
 1036000    16.181624    -1.715832  0.077390648   -1.6384414 
 1037000    16.342766   -1.7190691  0.078161327   -1.6409077 
 1038000    10.981675   -1.7286756  0.052521239   -1.6761543 
 1039000    12.218327    -1.729133  0.058435681   -1.6706973 
 1040000    12.083487   -1.7306564  0.057790794   -1.6728656 
 1041000    11.859215   -1.7347666  0.056718185   -1.6780484 
 1042000    12.817586   -1.7320574  0.061301711   -1.6707557 
 1043000    12.874308   -1.7318465  0.061572993   -1.6702735 
 1044000    12.384713   -1.7245205   0.05923144   -1.6652891 
 1045000    9.4154464    -1.733701  0.045030553   -1.6886704 
 1046000    11.696564   -1.7270524  0.055940285   -1.6711121 
 1047000     12.18892   -1.7198583  0.058295036   -1.6615632 
 1048000    11.005273   -1.7356947  0.052634096   -1.6830606 
 1049000    14.779572   -1.7270615  0.070685155   -1.6563763 
 1050000    10.598244   -1.7225224  0.050687429    -1.671835 
 1051000    10.509779   -1.7266168  0.050264337   -1.6763525 
 1052000    12.471618   -1.7461187  0.059647076   -1.6864716 
 1053000    13.277522   -1.7303007  0.063501412   -1.6667993 
 1054000    10.120933   -1.7201717  0.048404629   -1.6717671 
 1055000     12.71868   -1.7352586  0.060828681   -1.6744299 
 1056000      11.1715   -1.7409741  0.053429099    -1.687545 
 1057000     13.41909   -1.7198931   0.06417848   -1.6557147 
 1058000    15.274125   -1.7078557  0.073050416   -1.6348053 
 1059000    14.845318   -1.6937123  0.070999596   -1.6227127 
 1060000    15.569277   -1.7156671  0.074462019   -1.6412051 
 1061000    14.205256   -1.7064513  0.067938415   -1.6385129 
 1062000    11.825344   -1.7055345   0.05655619   -1.6489783 
 1063000    13.358935   -1.6943146  0.063890783   -1.6304238 
 1064000    18.281959   -1.6878054  0.087435759   -1.6003697 
 1065000    15.698694   -1.7139811  0.075080971   -1.6389001 
 1066000    13.051052   -1.6812144  0.062418294   -1.6187961 
 1067000    13.848864   -1.7110003  0.066233926   -1.6447663 
 1068000    14.777432   -1.7279119  0.070674922   -1.6572369 
 1069000    11.822855   -1.6988755  0.056544286   -1.6423312 
 1070000    16.529023   -1.7135028  0.079052127   -1.6344506 
 1071000    16.900562   -1.7101413  0.080829057   -1.6293123 
 1072000    17.744946   -1.7063113  0.084867427   -1.6214439 
 1073000    17.346554   -1.7113128  0.082962071   -1.6283507 
 1074000    18.766564   -1.7203527  0.089753445   -1.6305993 
 1075000    17.317626   -1.7028844  0.082823717   -1.6200606 
 1076000     14.13266    -1.712025   0.06759122   -1.6444338 
 1077000    16.957993    -1.690545  0.081103729   -1.6094413 
 1078000    17.726424   -1.7298859  0.084778846    -1.645107 
 1079000    13.839693   -1.6961899  0.066190068   -1.6299998 
 1080000    17.090572   -1.6762949  0.081737802   -1.5945571 
 1081000    16.666191   -1.7172697  0.079708146   -1.6375616 
 1082000    14.821331   -1.6999552  0.070884872   -1.6290704 
 1083000    13.523322   -1.6978819  0.064676985   -1.6332049 
 1084000    15.918541   -1.7267589  0.076132416   -1.6506265 
 1085000    15.354594   -1.7012347  0.073435273   -1.6277994 
 1086000    14.869959   -1.6980617  0.071117442   -1.6269443 
 1087000    16.631518   -1.7051155  0.079542319   -1.6255732 
 1088000    14.835518   -1.7236357  0.070952725    -1.652683 
 1089000    15.479472   -1.7051347  0.074032514   -1.6311022 
 1090000    13.628708    -1.701717  0.065181003    -1.636536 
 1091000    15.944096   -1.7194072  0.076254636   -1.6431525 
 1092000    15.949146   -1.6964316  0.076278791   -1.6201529 
 1093000    14.118807    -1.715565  0.067524962   -1.6480401 
 1094000    17.312902   -1.7079918  0.082801123   -1.6251907 
 1095000    14.600124   -1.6950914  0.069826922   -1.6252645 
 1096000    15.643293   -1.7236394  0.074816011   -1.6488234 
 1097000    13.128421   -1.7028782  0.062788322   -1.6400899 
 1098000    14.559196   -1.6930854  0.069631179   -1.6234542 
 1099000    13.860962   -1.7211272  0.066291787   -1.6548354 
 1100000    13.629903   -1.6939103  0.065186722   -1.6287236 
 1101000    16.209937   -1.7061858  0.077526055   -1.6286597 
 1102000    18.530815   -1.7217239  0.088625946   -1.6330979 
 1103000    17.845722   -1.6922257  0.085349401   -1.6068763 
 1104000    15.991707   -1.7120669  0.076482345   -1.6355846 
 1105000    17.394222   -1.7058944  0.083190045   -1.6227043 
 1106000    15.799577   -1.6994671  0.075563456   -1.6239037 
 1107000    14.711504    -1.707518  0.070359613   -1.6371583 
 1108000    13.376482   -1.7123581  0.063974702   -1.6483834 
 1109000    13.467292   -1.7022321  0.064409014   -1.6378231 
 1110000    18.348349    -1.698498  0.087753277   -1.6107447 
 1111000    14.395817   -1.6975544  0.068849799   -1.6287046 
 1112000    14.012774   -1.7125173  0.067017847   -1.6454994 
 1113000    16.496057   -1.7081212  0.078894461   -1.6292268 
 1114000    12.810226   -1.7147221  0.061266511   -1.6534556 
 1115000    17.846336   -1.6836723   0.08535234     -1.59832 
 1116000    18.346501   -1.7202146   0.08774444   -1.6324702 
 1117000     17.46771   -1.7084769  0.083541514   -1.6249354 
 1118000    15.069564    -1.709223  0.072072079   -1.6371509 
 1119000    15.382933   -1.6851443  0.073570805   -1.6115735 
 1120000    14.478355   -1.7205064  0.069244548   -1.6512619 
 1121000    16.067091   -1.6862413  0.076842875   -1.6093984 
 1122000    18.317128   -1.6994587  0.087603963   -1.6118547 
 1123000    14.635612   -1.7261138  0.069996651   -1.6561172 
 1124000    13.975814   -1.7044719  0.066841084   -1.6376308 
 1125000    14.913682   -1.7128274  0.071326553   -1.6415009 
 1126000    15.001534   -1.7096358  0.071746716   -1.6378891 
 1127000     14.15462   -1.7167788  0.067696246   -1.6490825 
 1128000    13.898281   -1.7075716   0.06647027   -1.6411013 
 1129000    16.238422   -1.7073403  0.077662291    -1.629678 
 1130000    17.822498   -1.7170569  0.085238331   -1.6318186 
 1131000    14.750578   -1.7168029  0.070546488   -1.6462564 
 1132000    17.354537    -1.688437  0.083000249   -1.6054368 
 1133000    18.067469   -1.6980886  0.086409937   -1.6116786 
 1134000    16.408605    -1.714847  0.078476209   -1.6363708 
 1135000    18.648059   -1.6979587   0.08918668    -1.608772 
 1136000    13.785409   -1.7106465  0.065930449    -1.644716 
 1137000    13.959876   -1.6989862  0.066764855   -1.6322213 
 1138000    18.731455   -1.6976324  0.089585533   -1.6080469 
 1139000     14.33781   -1.7088391  0.068572375   -1.6402668 
 1140000    17.961291   -1.7200127  0.085902126   -1.6341106 
 1141000    15.696281   -1.6983787  0.075069431   -1.6233093 
 1142000    16.502606   -1.7191005   0.07892578   -1.6401748 
 1143000    14.035509   -1.7059308   0.06712658   -1.6388042 
 1144000    12.942576    -1.693132  0.061899492   -1.6312325 
 1145000    18.564334   -1.6994075  0.088786256   -1.6106212 
 1146000    16.703155   -1.7158276  0.079884934   -1.6359426 
 1147000     14.56492   -1.6942043  0.069658554   -1.6245458 
 1148000    16.874934   -1.7179277  0.080706485   -1.6372213 
 1149000    11.053971   -1.7240441  0.052867002   -1.6711771 
 1150000    12.072696   -1.7390868  0.057739183   -1.6813476 
 1151000    11.755065   -1.7358896  0.056220071   -1.6796695 
 1152000    12.608893   -1.7296037  0.060303613   -1.6693001 
 1153000    12.170269   -1.7274326  0.058205839   -1.6692267 
 1154000    11.736152   -1.7407316  0.056129619    -1.684602 
 1155000    7.1678626   -1.7374332  0.034281202    -1.703152 
 1156000    8.0118012   -1.7457363  0.038317444   -1.7074189 
 1157000    8.3309849   -1.7398434   0.03984398   -1.6999994 
 1158000    8.2004556   -1.7465571  0.039219707   -1.7073374 
 1159000    8.3540618   -1.7487636  0.039954348   -1.7088092 
 1160000    10.087303   -1.7377298  0.048243792    -1.689486 
 1161000    14.517243   -1.7158285  0.069430535   -1.6463979 
 1162000    11.785278   -1.7496962   0.05636457   -1.6933317 
 1163000    7.2362835   -1.7559509  0.034608433   -1.7213425 
 1164000    10.734608   -1.7479448  0.051339609   -1.6966052 
 1165000    10.612544   -1.7425315  0.050755822   -1.6917756 
 1166000    9.5224652   -1.7526164  0.045542383    -1.707074 
 1167000     5.543256   -1.7638022  0.026511317   -1.7372909 
 1168000    6.2840154   -1.7574566  0.030054091   -1.7274025 
 1169000    6.7044179   -1.7588363  0.032064719   -1.7267716 
 1170000    7.1608926   -1.7662735  0.034247866   -1.7320256 
 1171000    4.9317806   -1.7608226  0.023586859   -1.7372357 
 1172000    6.8480581   -1.7659239  0.032751696   -1.7331722 
 1173000    7.0126961   -1.7676682  0.033539098   -1.7341291 
 1174000    6.6245079   -1.7613855   0.03168254    -1.729703 
 1175000    6.3314224   -1.7634939  0.030280821   -1.7332131 
 1176000    6.7839863   -1.7578669  0.032445265   -1.7254217 
 1177000    7.4240315   -1.7643514  0.035506361    -1.728845 
 1178000    6.2152878    -1.770717  0.029725393   -1.7409916 
 1179000    6.2820687   -1.7546179  0.030044781   -1.7245732 
 1180000    5.9588145   -1.7593488  0.028498777   -1.7308501 
 1181000     6.207242   -1.7661007  0.029686913   -1.7364138 
 1182000    6.1140315   -1.7640009  0.029241122   -1.7347598 
 1183000    6.5845731   -1.7631067  0.031491546   -1.7316152 
 1184000    6.3123225    -1.759038  0.030189473   -1.7288485 
 1185000    5.9465988   -1.7611566  0.028440354   -1.7327162 
 1186000    6.6496296    -1.765481  0.031802687   -1.7336783 
 1187000    5.5559083   -1.7576932  0.026571828   -1.7311213 
 1188000    5.5397935   -1.7666651  0.026494757   -1.7401704 
 1189000    6.0587223   -1.7600222  0.028976599   -1.7310456 
 1190000    5.9476648   -1.7523854  0.028445453     -1.72394 
 1191000    8.0267018   -1.7566515  0.038388708   -1.7182628 
 1192000    7.8960383   -1.7384157  0.037763793   -1.7006519 
 1193000     7.727787    -1.745855   0.03695911   -1.7088959 
 1194000     8.672329   -1.7465985  0.041476501    -1.705122 
 1195000    9.8945632   -1.7516252  0.047321989   -1.7043032 
 1196000    5.5147071   -1.7655805  0.026374778   -1.7392057 
 1197000    6.8946629   -1.7652307   0.03297459   -1.7322561 
 1198000    5.2144507   -1.7580339  0.024938764   -1.7330952 
 1199000    6.7407539   -1.7677654    0.0322385   -1.7355269 
 1200000     7.283039   -1.7659269  0.034832047   -1.7310949 
 1201000    4.0164149   -1.7727087  0.019209008   -1.7534997 
 1202000    4.8992676   -1.7738775  0.023431361   -1.7504462 
 1203000    6.0518215    -1.774431  0.028943595   -1.7454874 
 1204000    3.6853284   -1.7700127  0.017625545   -1.7523871 
 1205000    4.9215443   -1.7782885  0.023537902   -1.7547506 
 1206000     4.420841   -1.7796943  0.021143226   -1.7585511 
 1207000    2.9003207   -1.7770706  0.013871147   -1.7631995 
 1208000    4.2204284   -1.7798114  0.020184728   -1.7596267 
 1209000    3.4593896   -1.7766066  0.016544965   -1.7600617 
 1210000    3.2976669   -1.7823278  0.015771505   -1.7665563 
 1211000    2.7434348   -1.7837663  0.013120821   -1.7706455 
 1212000    3.1511668   -1.7845238   0.01507085    -1.769453 
 1213000    2.6489906   -1.7859129   0.01266913   -1.7732438 
 1214000    3.4632447   -1.7845051  0.016563402   -1.7679417 
 1215000    2.4414775   -1.7814247  0.011676672    -1.769748 
 1216000    2.8619832   -1.7855394  0.013687793   -1.7718516 
 1217000    2.0821168   -1.7817325 0.0099579847   -1.7717745 
 1218000    4.6837923   -1.7793543  0.022400824   -1.7569535 
 1219000    4.5111951   -1.7794365  0.021575356   -1.7578612 
 1220000    2.8863852   -1.7801998  0.013804499   -1.7663953 
 1221000    3.2295314   -1.7830333  0.015445639   -1.7675877 
 1222000    3.1996385   -1.7783763  0.015302672   -1.7630736 
 1223000    3.8082962    -1.778439  0.018213654   -1.7602254 
 1224000    3.1622741   -1.7780108  0.015123972   -1.7628868 
 1225000    4.5972628   -1.7768992  0.021986986   -1.7549122 
 1226000    3.8042072   -1.7782653  0.018194098   -1.7600712 
 1227000    2.9978939   -1.7784595  0.014337803   -1.7641217 
 1228000    4.1764745   -1.7790102  0.019974513   -1.7590357 
 1229000    2.9024555   -1.7734063  0.013881357    -1.759525 
 1230000    3.6168784   -1.7780953  0.017298175   -1.7607971 
 1231000    4.5390955   -1.7803911  0.021708793   -1.7586823 
 1232000    2.7509083   -1.7798529  0.013156564   -1.7666964 
 1233000    3.8798488   -1.7812818  0.018555863   -1.7627259 
 1234000    3.5817727   -1.7774773  0.017130277   -1.7603471 
 1235000    3.5463723     -1.77477   0.01696097    -1.757809 
 1236000    3.6494567   -1.7830949  0.017453984   -1.7656409 
 1237000    3.6886622   -1.7813907  0.017641489   -1.7637493 
 1238000    4.2836827   -1.7801514   0.02048725   -1.7596641 
 1239000    3.4233143   -1.7785558   0.01637243   -1.7621834 
 1240000     3.990418   -1.7792519  0.019084674   -1.7601672 
 1241000    3.1649648   -1.7817084  0.015136841   -1.7665716 
 1242000    3.9256094   -1.7774431  0.018774719   -1.7586684 
 1243000     2.665234   -1.7763259  0.012746816   -1.7635791 
 1244000    3.9870254    -1.775486  0.019068449   -1.7564176 
 1245000     2.713657   -1.7822825  0.012978405   -1.7693041 
 1246000    3.5979439   -1.7776861  0.017207618   -1.7604785 
 1247000    3.5980391   -1.7785457  0.017208073   -1.7613376 
 1248000    3.3288975   -1.7801821  0.015920869   -1.7642613 
 1249000    3.2263011   -1.7801434   0.01543019   -1.7647133 
 1250000    4.4668616   -1.7828365  0.021363326   -1.7614731 
 1251000    2.9997657   -1.7840615  0.014346756   -1.7697147 
 1252000    2.4984475   -1.7779484  0.011949138   -1.7659993 
 1253000    3.7933391   -1.7780056   0.01814212   -1.7598635 
 1254000    3.0713149     -1.77545  0.014688949   -1.7607611 
 1255000    3.7929601   -1.7768131  0.018140307   -1.7586728 
 1256000     3.186465   -1.7758433  0.015239668   -1.7606037 
 1257000    3.1427244   -1.7776929  0.015030473   -1.7626625 
 1258000    4.0090678   -1.7776919   0.01917387   -1.7585181 
 1259000    3.4945305   -1.7834072   0.01671303   -1.7666941 
 1260000    4.7281029    -1.774118  0.022612745   -1.7515053 
 1261000    3.8422162   -1.7779195  0.018375881   -1.7595436 
 1262000    4.5875587   -1.7780373  0.021940575   -1.7560967 
 1263000    4.2481883   -1.7819532  0.020317493   -1.7616357 
 1264000    2.8215239   -1.7850438  0.013494292   -1.7715495 
 1265000    2.4101061   -1.7866908  0.011526635   -1.7751642 
 1266000    2.9671176   -1.7806214  0.014190612   -1.7664308 
 1267000    2.8882109   -1.7858455  0.013813231   -1.7720323 
 1268000    2.3543095   -1.7839359   0.01125978   -1.7726761 
 1269000    2.3062542   -1.7838244   0.01102995   -1.7727944 
 1270000    2.3807235   -1.7842676  0.011386109   -1.7728815 
 1271000    2.5193602   -1.7829682  0.012049156    -1.770919 
 1272000     1.976889    -1.782919 0.0094547195   -1.7734643 
 1273000    2.1036442   -1.7860208  0.010060942   -1.7759598 
 1274000    2.3249687   -1.7861855  0.011119454    -1.775066 
[...]
 4706000    16.743359   -1.6988572  0.080077211   -1.6187799 
 4707000    16.716358   -1.7291311  0.079948078    -1.649183 
 4708000    16.322917   -1.7050312  0.078066399   -1.6269648 
 4709000    11.931936   -1.7107387  0.057065979   -1.6536727 
 4710000    14.588173   -1.7074827  0.069769769   -1.6377129 
 4711000    17.292925   -1.6985683  0.082705581   -1.6158627 
 4712000    15.301107   -1.6960713  0.073179462   -1.6228918 
 4713000    12.212256    -1.688444  0.058406647   -1.6300374 
 4714000    16.951129   -1.6944848    0.0810709   -1.6134139 
 4715000    18.298834   -1.7090461  0.087516466   -1.6215297 
 4716000    17.800069   -1.6964198  0.085131063   -1.6112888 
 4717000    16.458002   -1.7119708  0.078712458   -1.6332584 
 4718000    15.399751   -1.7070313  0.073651239   -1.6333801 
 4719000    16.903677   -1.7200465  0.080843953   -1.6392026 
 4720000    13.910144    -1.701517  0.066527006     -1.63499 
 4721000    18.617666   -1.6914772   0.08904132   -1.6024359 
 4722000     13.89187   -1.7018258  0.066439611   -1.6353862 
 4723000    18.412371   -1.6992038  0.088059475   -1.6111443 
 4724000    13.828921   -1.7181358  0.066138548   -1.6519973 
 4725000    16.337884   -1.7000553  0.078137981   -1.6219173 
 4726000    13.912785   -1.6995916  0.066539641   -1.6330519 
 4727000    14.213168   -1.7153997   0.06797626   -1.6474234 
 4728000    16.331997   -1.7115159  0.078109824   -1.6334061 
 4729000    15.689441    -1.696338  0.075036718   -1.6213013 
 4730000    13.526937   -1.7039172   0.06469427   -1.6392229 
 4731000    19.879852   -1.7055022  0.095077887   -1.6104243 
 4732000    14.437099   -1.7027819  0.069047238   -1.6337346 
 4733000    19.145574   -1.7025536  0.091566107   -1.6109875 
 4734000    14.658198    -1.703661  0.070104668   -1.6335563 
 4735000    21.259545   -1.7199108   0.10167644   -1.6182344 
 4736000    16.970614   -1.7086349   0.08116409   -1.6274708 
 4737000    17.391535   -1.7051861  0.083177197   -1.6220089 
 4738000      17.8502   -1.6847119  0.085370819    -1.599341 
 4739000    17.925625   -1.6911555   0.08573155   -1.6054239 
 4740000     15.02141   -1.7188044  0.071841776   -1.6469626 
 4741000    17.005778   -1.7113052  0.081332266   -1.6299729 
 4742000    15.001834   -1.7019626  0.071748154   -1.6302145 
 4743000      12.3274   -1.7138843  0.058957338    -1.654927 
 4744000    16.855653   -1.6906634  0.080614276   -1.6100491 
 4745000    16.168072   -1.7150385  0.077325832   -1.6377127 
 4746000    16.108347   -1.7037911   0.07704019   -1.6267509 
 4747000    16.279289   -1.7045902  0.077857738   -1.6267325 
 4748000    13.254608   -1.7149528  0.063391826    -1.651561 
 4749000    17.462618   -1.7064329  0.083517159   -1.6229158 
 4750000    16.991576   -1.7216479  0.081264341   -1.6403835 
 4751000    15.349502   -1.7217752  0.073410917   -1.6483643 
 4752000    10.870742   -1.7432166  0.051990685    -1.691226 
 4753000    10.310629   -1.7472993  0.049311877   -1.6979874 
 4754000    9.6562975   -1.7461033  0.046182453   -1.6999208 
 4755000    8.5034054   -1.7445234  0.040668602   -1.7038548 
 4756000    9.7049952    -1.744567  0.046415356   -1.6981517 
 4757000    10.689775   -1.7382365  0.051125189   -1.6871113 
 4758000    10.213543   -1.7629752  0.048847549   -1.7141276 
 4759000    11.720152   -1.7463045  0.056053094   -1.6902514 
 4760000    7.6303588   -1.7490271  0.036493148   -1.7125339 
 4761000    9.3603271   -1.7412005  0.044766938   -1.6964336 
 4762000    7.3430795   -1.7480037  0.035119198   -1.7128845 
 4763000    6.7380453   -1.7515836  0.032225546    -1.719358 
 4764000    9.6801165   -1.7363235  0.046296371   -1.6900272 
 4765000    7.5027965   -1.7571853  0.035883065   -1.7213022 
 4766000     8.362579   -1.7523713  0.039995083   -1.7123763 
 4767000    8.5398679   -1.7450465  0.040842989   -1.7042035 
 4768000    10.603489   -1.7535333  0.050712514   -1.7028208 
 4769000    10.048834   -1.7455551  0.048059808   -1.6974953 
 4770000    10.381579   -1.7447956  0.049651202   -1.6951444 
 4771000    9.1173338   -1.7450941  0.043604792   -1.7014893 
 4772000    8.6987733   -1.7552065  0.041602974   -1.7136035 
 4773000    7.8854452   -1.7472273   0.03771313   -1.7095141 
 4774000     8.460446   -1.7506507  0.040463144   -1.7101875 
 4775000    8.6438964   -1.7425396  0.041340518   -1.7011991 
 4776000    8.3869645   -1.7511142  0.040111709   -1.7110025 
 4777000    8.9322384   -1.7510372   0.04271955   -1.7083176 
 4778000     9.394454   -1.7437648  0.044930154   -1.6988346 
 4779000    8.8427363   -1.7472948  0.042291495   -1.7050033 
 4780000    10.771569   -1.7448316   0.05151638   -1.6933152 
 4781000    9.9402549   -1.7483787  0.047540515   -1.7008382 
 4782000    9.4241669   -1.7391906   0.04507226   -1.6941184 
 4783000    10.578994   -1.7456561  0.050595364   -1.6950607 
 4784000    9.0291831    -1.756016    0.0431832   -1.7128328 
 4785000    8.2242467   -1.7400464  0.039333491   -1.7007129 
 4786000     8.549268   -1.7509074  0.040887946   -1.7100195 
 4787000    9.4927285   -1.7455316  0.045400164   -1.7001314 
 4788000    10.051973   -1.7459352  0.048074821   -1.6978604 
 4789000    7.7913677      -1.7387  0.037263193   -1.7014368 
 4790000     12.85672   -1.7309047  0.061488877   -1.6694158 
 4791000    11.170492   -1.7241047   0.05342428   -1.6706804 
 4792000    12.670461    -1.730327  0.060598066   -1.6697289 
 4793000    12.181591   -1.7370385  0.058259984   -1.6787785 
 4794000    13.602218   -1.7221083  0.065054311    -1.657054 
 4795000    10.646101    -1.728356  0.050916314   -1.6774397 
 4796000    8.9095036    -1.742277  0.042610818   -1.6996662 
 4797000    12.388049   -1.7232459  0.059247399   -1.6639985 
 4798000    15.265872   -1.7292286  0.073010946   -1.6562177 
 4799000    9.8176318   -1.7336136  0.046954055   -1.6866596 
 4800000    16.182414   -1.6831145  0.077394422     -1.60572 
 4801000    20.683101    -1.715773  0.098919523   -1.6168535 
 4802000    17.395892    -1.696009  0.083198032    -1.612811 
 4803000    16.160494   -1.7201658  0.077289587   -1.6428762 
 4804000    11.376413   -1.7331575  0.054409123   -1.6787484 
 4805000      14.2228   -1.7329401  0.068022325   -1.6649178 
 4806000    13.024484   -1.7382851  0.062291228   -1.6759938 
 4807000    7.8126006   -1.7547033  0.037364742   -1.7173386 
 4808000    7.6263366   -1.7510849  0.036473911    -1.714611 
 4809000    7.7263649   -1.7377649  0.036952309   -1.7008125 
 4810000    9.8437315   -1.7427085   0.04707888   -1.6956296 
 4811000    10.666526   -1.7560317  0.051013996   -1.7050177 
 4812000    5.9211304   -1.7680829  0.028318548   -1.7397644 
 4813000    6.8633807   -1.7570114  0.032824979   -1.7241864 
 4814000    7.4372144   -1.7600244   0.03556941    -1.724455 
 4815000    8.6318017   -1.7692422  0.041282674   -1.7279596 
 4816000    5.6923481   -1.7694361  0.027224369   -1.7422117 
 4817000    7.2166646   -1.7701806  0.034514603    -1.735666 
 4818000    7.7627503   -1.7607042  0.037126326   -1.7235778 
 4819000    6.1952003   -1.7647294  0.029629322   -1.7351001 
 4820000    6.2454989   -1.7589309  0.029869882   -1.7290611 
 4821000    5.5582968   -1.7681393  0.026583251   -1.7415561 
 4822000    7.5271445   -1.7582642  0.035999512   -1.7222647 
 4823000    6.7170188   -1.7571983  0.032124984   -1.7250733 
 4824000    5.4553039   -1.7570344  0.026090675   -1.7309437 
 4825000    5.8624881   -1.7638046  0.028038084   -1.7357665 
 4826000    5.1341623   -1.7591375  0.024554775   -1.7345828 
 4827000    8.6518476   -1.7603909  0.041378546   -1.7190123 
 4828000    10.034948   -1.7469515  0.047993396   -1.6989581 
 4829000    8.4693834   -1.7566387  0.040505888   -1.7161328 
 4830000    8.5511919   -1.7475469  0.040897147   -1.7066498 
 4831000    9.0952883   -1.7555582  0.043499357   -1.7120588 
 4832000    9.1234279   -1.7424798  0.043633938   -1.6988458 
 4833000    10.759399   -1.7343607  0.051458173   -1.6829026 
 4834000    9.8415112   -1.7502843  0.047068261    -1.703216 
 4835000    10.363164   -1.7430944  0.049563131   -1.6935313 
 4836000    12.636919   -1.7225929   0.06043765   -1.6621552 
 4837000    13.085522   -1.7394742  0.062583148   -1.6768911 
 4838000    10.320302   -1.7429603  0.049358138   -1.6936022 
 4839000    9.0684836   -1.7643335   0.04337116   -1.7209624 
 4840000    6.2805333   -1.7652497  0.030037438   -1.7352123 
 4841000    7.7312698   -1.7527837  0.036975767    -1.715808 
 4842000    5.9114957   -1.7588383  0.028272469   -1.7305658 
 4843000    7.4347301   -1.7669038  0.035557529   -1.7313462 
 4844000    6.0339416   -1.7616242  0.028858082   -1.7327661 
 4845000    6.3866177   -1.7569502    0.0305448   -1.7264054 
 4846000    6.5357395   -1.7569126  0.031257994   -1.7256546 
 4847000    6.5131116   -1.7600514  0.031149773   -1.7289016 
 4848000    5.9258221   -1.7672167  0.028340987   -1.7388757 
 4849000    8.2186324   -1.7575076   0.03930664    -1.718201 
 4850000      6.62382   -1.7580357   0.03167925   -1.7263564 
 4851000      6.26222   -1.7700907  0.029949852   -1.7401409 
 4852000    4.6139252   -1.7722482  0.022066676   -1.7501816 
 4853000    4.5366729   -1.7771987  0.021697207   -1.7555015 
 4854000    4.8911218    -1.763888  0.023392403   -1.7404956 
 4855000    4.5765119   -1.7738064  0.021887742   -1.7519186 
 4856000    4.2207272   -1.7747314  0.020186157   -1.7545453 
 4857000     5.494167   -1.7696518  0.026276543   -1.7433753 
 4858000    4.6158344   -1.7720396  0.022075807   -1.7499638 
 4859000    4.5858264   -1.7690791   0.02193229   -1.7471468 
 4860000    4.8034704   -1.7659207  0.022973199   -1.7429475 
 4861000    4.7095618   -1.7734409   0.02252407   -1.7509168 
 4862000    4.7810952   -1.7661941  0.022866187   -1.7433279 
 4863000    5.4802561   -1.7701904  0.026210012   -1.7439804 
 4864000    3.3772629   -1.7755816  0.016152183   -1.7594294 
 4865000     3.324081   -1.7719611  0.015897834   -1.7560632 
 4866000    4.7626447   -1.7702252  0.022777945   -1.7474473 
 4867000    4.2522806   -1.7740923  0.020337065   -1.7537553 
 4868000    4.1104099   -1.7694889  0.019658551   -1.7498304 
 4869000    5.2360313   -1.7795904  0.025041976   -1.7545484 
 4870000    4.5691747   -1.7663943  0.021852651   -1.7445416 
 4871000    4.3251424   -1.7698194  0.020685536   -1.7491338 
 4872000    5.6472333   -1.7726401  0.027008601   -1.7456315 
 4873000    5.6388076   -1.7680979  0.026968304   -1.7411295 
 4874000    4.0381893   -1.7712024  0.019313147   -1.7518893 
 4875000    4.7693833   -1.7719576  0.022810173   -1.7491475 
 4876000    5.2460726   -1.7677978      0.02509   -1.7427078 
 4877000    5.2738067   -1.7676612  0.025222642   -1.7424385 
 4878000    5.7857674   -1.7751076  0.027671158   -1.7474365 
 4879000    5.8394169   -1.7641375  0.027927744   -1.7362097 
 4880000    5.0512485   -1.7682379  0.024158229   -1.7440797 
 4881000    5.7922317   -1.7621755  0.027702074   -1.7344734 
 4882000    5.5340239    -1.774168  0.026467163   -1.7477009 
 4883000    3.8545689    -1.774293  0.018434959    -1.755858 
 4884000    4.9200022   -1.7701734  0.023530527   -1.7466429 
 4885000    5.0029881   -1.7626875  0.023927418     -1.73876 
 4886000    4.6352557   -1.7731174  0.022168691   -1.7509487 
 4887000    5.3709459   -1.7760671  0.025687222   -1.7503799 
 4888000    5.7911402   -1.7727531  0.027696854   -1.7450563 
 4889000    4.9797725   -1.7672993  0.023816386   -1.7434829 
 4890000      5.47016   -1.7710164  0.026161726   -1.7448547 
 4891000    5.3600375   -1.7775057  0.025635051   -1.7518706 
 4892000    5.6779202   -1.7739284  0.027155365   -1.7467731 
 4893000    4.5508076   -1.7694125  0.021764808   -1.7476477 
 4894000    6.1772177    -1.766582  0.029543318   -1.7370387 
 4895000    8.2843639   -1.7577303  0.039621009   -1.7181093 
 4896000    4.8586502   -1.7567666  0.023237104   -1.7335294 
 4897000    7.3556156   -1.7628561  0.035179154   -1.7276769 
 4898000    4.8862586   -1.7711215  0.023369144   -1.7477523 
 4899000    4.7994377   -1.7734889  0.022953912    -1.750535 
 4900000    4.9576673   -1.7692199  0.023710665   -1.7455092 
 4901000    5.5801216   -1.7704225  0.026687631   -1.7437348 
 4902000    3.1878896   -1.7696728  0.015246482   -1.7544264 
 4903000    5.4139429   -1.7661606   0.02589286   -1.7402677 
 4904000    5.3225101   -1.7693606  0.025455572    -1.743905 
 4905000    6.0834201   -1.7574213  0.029094719   -1.7283266 
 4906000    6.0569453   -1.7501349    0.0289681   -1.7211668 
 4907000    5.3986489   -1.7605487  0.025819715    -1.734729 
 4908000    6.2536187   -1.7614727  0.029908715    -1.731564 
 4909000    6.8206126   -1.7612353  0.032620435   -1.7286148 
 4910000    4.9337862   -1.7459152  0.023596451   -1.7223188 
 4911000    7.9372031   -1.7666505  0.037960669   -1.7286898 
 4912000     6.373955   -1.7773858  0.030484239   -1.7469015 
 4913000    4.5181892   -1.7773113  0.021608806   -1.7557025 
 4914000    5.3230359   -1.7634426  0.025458086   -1.7379845 
 4915000    3.7121625   -1.7701792  0.017753883   -1.7524253 
 4916000    3.9404824   -1.7723418  0.018845851   -1.7534959 
 4917000    4.4388059   -1.7711524  0.021229146   -1.7499232 
 4918000    4.8307716   -1.7719299  0.023103771   -1.7488261 
 4919000    6.3710807   -1.7601802  0.030470492   -1.7297097 
 4920000    6.1664703    -1.760507  0.029491917   -1.7310151 
 4921000    6.3747788   -1.7647738  0.030488179   -1.7342857 
 4922000    5.4370558   -1.7578857  0.026003401   -1.7318823 
 4923000    6.3711813    -1.767241  0.030470973     -1.73677 
 4924000    4.1253086   -1.7674862  0.019729805   -1.7477564 
 4925000    4.9734752   -1.7727375  0.023786269   -1.7489512 
 4926000    4.7870874   -1.7737499  0.022894846   -1.7508551 
 4927000    4.9569316   -1.7742517  0.023707147   -1.7505446 
 4928000    5.4940953   -1.7720559  0.026276199   -1.7457797 
 4929000    5.0862633   -1.7717406  0.024325692   -1.7474149 
 4930000    3.7698951   -1.7727596  0.018029996   -1.7547296 
 4931000    5.1301162   -1.7732733  0.024535424   -1.7487379 
 4932000    4.9120678   -1.7714974   0.02349258   -1.7480049 
 4933000    4.1016622   -1.7735501  0.019616714   -1.7539334 
 4934000    6.2601004   -1.7659755  0.029939715   -1.7360358 
 4935000    5.2242327   -1.7764981  0.024985548   -1.7515126 
 4936000    5.2306012   -1.7717235  0.025016006   -1.7467075 
 4937000    5.1775359   -1.7715653  0.024762214   -1.7468031 
 4938000    5.6032291   -1.7708592  0.026798146   -1.7440611 
 4939000    5.8305019   -1.7648711  0.027885106    -1.736986 
 4940000    5.5900673   -1.7737983  0.026735198   -1.7470631 
 4941000    4.3386929   -1.7704024  0.020750343   -1.7496521 
 4942000    5.5535872   -1.7650284  0.026560727   -1.7384677 
 4943000    6.9342532   -1.7675013  0.033163935   -1.7343374 
 4944000    6.6939293   -1.7669529  0.032014556   -1.7349383 
 4945000    6.3218131   -1.7658402  0.030234864   -1.7356053 
 4946000    5.7893543   -1.7662071  0.027688313   -1.7385188 
 4947000    7.2663648   -1.7612262    0.0347523   -1.7264739 
 4948000    7.2539156   -1.7572249  0.034692761   -1.7225321 
 4949000    5.6226238    -1.761935  0.026890903   -1.7350441 
 4950000    6.1683108   -1.7647148   0.02950072    -1.735214 
 4951000    6.0226172   -1.7489888  0.028803922   -1.7201849 
 4952000    7.7758369   -1.7673984  0.037188915   -1.7302095 
 4953000    5.6687999    -1.764066  0.027111746   -1.7369543 
 4954000    10.077934   -1.7518069  0.048198983   -1.7036079 
 4955000    5.4194337   -1.7496791  0.025919121     -1.72376 
 4956000    7.3442472   -1.7347472  0.035124783   -1.6996224 
 4957000    12.224434    -1.765847  0.058464886   -1.7073821 
 4958000      6.99375   -1.7654227  0.033448486   -1.7319742 
 4959000    7.4039095   -1.7661222  0.035410125    -1.730712 
 4960000    7.7339425     -1.76487  0.036988549   -1.7278815 
 4961000     9.222318    -1.760276  0.044106892   -1.7161692 
 4962000    5.4864906    -1.755506  0.026239829   -1.7292662 
 4963000    10.093064   -1.7531044  0.048271345   -1.7048331 
 4964000     8.879462   -1.7378816   0.04246714   -1.6954145 
 4965000    10.129061    -1.753923  0.048443505   -1.7054795 
 4966000    12.889221   -1.7417842  0.061644318   -1.6801399 
 4967000    8.4687625   -1.7501531  0.040502918   -1.7096501 
 4968000    8.3460432   -1.7489652  0.039915998   -1.7090492 
 4969000     6.102281   -1.7474436  0.029184924   -1.7182587 
 4970000    9.9461131   -1.7445126  0.047568533   -1.6969441 
 4971000    7.3310999   -1.7605129  0.035061904    -1.725451 
 4972000    12.116401   -1.7459055  0.057948205   -1.6879573 
 4973000    8.4314327   -1.7408668  0.040324384   -1.7005425 
 4974000    9.2218787    -1.738387  0.044104791   -1.6942822 
 4975000    6.7883403   -1.7542906  0.032466089   -1.7218245 
 4976000    7.3143923   -1.7507677  0.034981998   -1.7157857 
 4977000    7.8310545   -1.7424773     0.037453   -1.7050243 
 4978000    9.0631285   -1.7446974  0.043345548   -1.7013519 
 4979000    8.7904602   -1.7537177  0.042041478   -1.7116762 
 4980000    6.4469133   -1.7594537  0.030833171   -1.7286205 
 4981000    8.2498037   -1.7656238  0.039455721   -1.7261681 
 4982000     4.250208   -1.7618037  0.020327152   -1.7414765 
 4983000    6.7107052   -1.7642915  0.032094789   -1.7321967 
 4984000    8.8688664   -1.7575886  0.042416465   -1.7151721 
 4985000    6.3163683   -1.7660737  0.030208823   -1.7358649 
 4986000    6.3648469   -1.7609126  0.030440678   -1.7304719 
 4987000    6.8560533   -1.7523561  0.032789935   -1.7195662 
 4988000    6.5146051   -1.7649154  0.031156916   -1.7337585 
 4989000    6.3772847   -1.7629011  0.030500163   -1.7324009 
 4990000    6.9689971   -1.7501425  0.033330102   -1.7168124 
 4991000    6.2594656   -1.7672457  0.029936679    -1.737309 
 4992000    6.4240607   -1.7682052  0.030723876   -1.7374813 
 4993000    5.5851358   -1.7638712  0.026711612   -1.7371596 
 4994000    6.4824386   -1.7544809  0.031003075   -1.7234779 
 4995000    8.2016705   -1.7603783  0.039225517   -1.7211527 
 4996000     6.436005   -1.7687212  0.030781001   -1.7379402 
 4997000    7.4278565     -1.76426  0.035524655   -1.7287354 
 4998000    4.6665352   -1.7608363   0.02231829    -1.738518 
 4999000    6.8211807   -1.7541169  0.032623152   -1.7214937 
 5000000    5.8497652   -1.7664131  0.027977235   -1.7384359 
Loop time of 1276.16 on 1 procs for 5000000 steps with 38 atoms

Performance: 338.516 ns/day, 0.071 hours/ns, 3918.010 timesteps/s
97.6% CPU use with 1 MPI tasks x no OpenMP threads

MPI task timing breakdown:
Section |  min time  |  avg time  |  max time  |%varavg| %total
---------------------------------------------------------------
Pair    | 1212.9     | 1212.9     | 1212.9     |   0.0 | 95.04
Neigh   | 4.1485e-05 | 4.1485e-05 | 4.1485e-05 |   0.0 |  0.00
Comm    | 1.1945     | 1.1945     | 1.1945     |   0.0 |  0.09
Output  | 0.24606    | 0.24606    | 0.24606    |   0.0 |  0.02
Modify  | 16.934     | 16.934     | 16.934     |   0.0 |  1.33
Other   |            | 44.88      |            |       |  3.52

Nlocal:        38.0000 ave          38 max          38 min
Histogram: 1 0 0 0 0 0 0 0 0 0
Nghost:        0.00000 ave           0 max           0 min
Histogram: 1 0 0 0 0 0 0 0 0 0
Neighs:        0.00000 ave           0 max           0 min
Histogram: 1 0 0 0 0 0 0 0 0 0

Total # of neighbors = 0
Ave neighs/atom = 0.0000000
Neighbor list builds = 169
Dangerous builds = 0


---------------------------------------------------------------------
      Device Time Info (average): 
---------------------------------------------------------------------
Data Transfer:   438.9622 s.
Data Cast/Pack:  2.1092 s.
Neighbor copy:   0.0196 s.
Neighbor build:  0.0126 s.
Force calc:      253.5611 s.
Neighbor (CPU):  0.0041 s.
Device Overhead: 196.4640 s.
Average split:   1.0000.
Threads / atom:  4.
Max Mem / Proc:  0.06 MB.
CPU Driver_Time: 202.7750 s.
CPU Idle_Time:   1026.7828 s.
---------------------------------------------------------------------

Total wall time: 0:21:16
