LAMMPS (29 Oct 2020)
Processor partition = 3
Reading data file ...
  orthogonal box = (-50.000000 -50.000000 -50.000000) to (50.000000 50.000000 50.000000)
  1 by 1 by 1 MPI processor grid
  reading atoms ...
  38 atoms
  read_data CPU = 0.010 seconds

--------------------------------------------------------------------------
- Using acceleration for lj/cut:
-  with 1 proc(s) per device.
--------------------------------------------------------------------------
Device 0: Tesla P100-PCIE-16GB, 56 CUs, 15/16 GB, 1.3 GHZ (Mixed Precision)
--------------------------------------------------------------------------

Initializing Device and compiling on process 0...Done.
Initializing Device 0 on core 0...Done.

Setting up Verlet run ...
  Unit style    : metal
  Current step  : 0
  Time step     : 0.001
Per MPI rank memory allocation (min/avg/max) = 3.436 | 3.436 | 3.436 Mbytes
Step Temp PotEng KinEng TotEng 
       0    4.9608862   -1.7950808   0.02372606   -1.7713547 
    1000    5.0124535   -1.7723294  0.023972687   -1.7483567 
    2000      4.85018   -1.7682407  0.023196594   -1.7450441 
    3000    5.3185344   -1.7627703  0.025436557   -1.7373337 
    4000    6.8141912   -1.7798428  0.032589724    -1.747253 
    5000    5.3414451    -1.768036  0.025546131   -1.7424899 
    6000    4.5745489   -1.7744367  0.021878354   -1.7525584 
    7000    6.1945719   -1.7663316  0.029626316   -1.7367053 
    8000    4.7719353   -1.7722951  0.022822379   -1.7494727 
    9000    4.5313972   -1.7696174  0.021671975   -1.7479454 
   10000    5.3402647   -1.7774579  0.025540485   -1.7519175 
   11000    5.3422214   -1.7667521  0.025549843   -1.7412022 
   12000    5.2615641   -1.7671735   0.02516409   -1.7420094 
   13000    5.3827474   -1.7651664  0.025743664   -1.7394228 
   14000    3.1065147    -1.786565  0.014857296   -1.7717077 
   15000    3.4430571   -1.7772735  0.016466852   -1.7608067 
   16000    3.8499827   -1.7825697  0.018413025   -1.7641567 
   17000    2.8819232   -1.7741844  0.013783159   -1.7604012 
   18000    4.2992992   -1.7798836  0.020561938   -1.7593217 
   19000     3.311139     -1.77841  0.015835937   -1.7625741 
   20000    3.4304992   -1.7834027  0.016406792   -1.7669959 
   21000     4.121867   -1.7771989  0.019713346   -1.7574856 
   22000     3.767419   -1.7760702  0.018018154   -1.7580521 
   23000    3.4767817   -1.7783666  0.016628144   -1.7617385 
   24000    3.3260567   -1.7822321  0.015907283   -1.7663248 
   25000    3.1535424   -1.7812887  0.015082212   -1.7662065 
   26000    3.9217783   -1.7794757  0.018756396   -1.7607193 
   27000    4.0550051   -1.7733707   0.01939357   -1.7539771 
   28000    3.6747534   -1.7804638  0.017574969   -1.7628888 
   29000    3.6330979   -1.7782393  0.017375746   -1.7608635 
   30000    3.9802741   -1.7835667   0.01903616   -1.7645306 
   31000    3.3143574   -1.7799961   0.01585133   -1.7641448 
   32000    4.4108097   -1.7804565   0.02109525   -1.7593612 
   33000    4.9086254    -1.778903  0.023476116   -1.7554269 
   34000    3.6032683   -1.7822857  0.017233083   -1.7650526 
   35000    4.2495946   -1.7797076  0.020324219   -1.7593834 
   36000    3.5308615   -1.7756131  0.016886788   -1.7587263 
   37000    4.1422994    -1.772938  0.019811066    -1.753127 
   38000    3.6797423    -1.778349  0.017598829   -1.7607501 
   39000    3.3607439   -1.7822164  0.016073179   -1.7661432 
   40000    3.3851563    -1.777822  0.016189934    -1.761632 
   41000    4.3929819   -1.7767723  0.021009987   -1.7557623 
   42000     3.598932   -1.7781314  0.017212344    -1.760919 
   43000    3.1020318   -1.7789217  0.014835856   -1.7640858 
   44000    2.9585722   -1.7805043  0.014149743   -1.7663546 
   45000    2.8497035    -1.775299  0.013629064   -1.7616699 
   46000    4.7068473   -1.7651837  0.022511087   -1.7426726 
   47000    3.6806976   -1.7625466  0.017603397   -1.7449432 
   48000    5.3192744   -1.7777505  0.025440097   -1.7523104 
   49000    4.8668637   -1.7722578  0.023276386   -1.7489814 
   50000    4.6172557   -1.7720812  0.022082604   -1.7499986 
   51000    4.5870973   -1.7696854  0.021938368    -1.747747 
   52000    5.5074534   -1.7695033  0.026340086   -1.7431632 
   53000    4.9456052   -1.7776113  0.023652977   -1.7539584 
   54000    4.2520571   -1.7701705  0.020335996   -1.7498345 
   55000    6.1485582   -1.7703517  0.029406251   -1.7409454 
   56000    4.2723172    -1.772767  0.020432893   -1.7523341 
   57000    5.8061586   -1.7676509  0.027768681   -1.7398822 
   58000    5.4745072   -1.7668887  0.026182517   -1.7407061 
   59000    6.1950725    -1.773644  0.029628711   -1.7440153 
   60000    4.8256885   -1.7697525   0.02307946    -1.746673 
   61000     5.197342   -1.7719425  0.024856939   -1.7470855 
   62000     5.867344   -1.7696335  0.028061308   -1.7415722 
   63000    6.0656515   -1.7671593  0.029009739   -1.7381496 
   64000    5.2627163   -1.7695635  0.025169601   -1.7443939 
   65000    6.9572007   -1.7601254  0.033273685   -1.7268517 
   66000    6.9046193   -1.7657439  0.033022208   -1.7327217 
   67000    4.1976226   -1.7754098  0.020075656   -1.7553341 
   68000     4.660116   -1.7666478  0.022287589   -1.7443602 
   69000    5.2599104   -1.7615935  0.025156181   -1.7364373 
   70000    7.2603042   -1.7496409  0.034723315   -1.7149176 
   71000    8.8925713   -1.7423018  0.042529837   -1.6997719 
   72000    8.8875811   -1.7637055  0.042505971   -1.7211995 
   73000    9.0615617   -1.7474213  0.043338055   -1.7040832 
   74000    10.312476    -1.743666   0.04932071   -1.6943453 
   75000    9.8158389   -1.7479379   0.04694548   -1.7009924 
   76000    8.1710468   -1.7521083  0.039079055   -1.7130293 
   77000    8.6516521   -1.7443962  0.041377611   -1.7030186 
   78000    8.6836374   -1.7437663  0.041530585   -1.7022357 
   79000    7.8547066   -1.7546695  0.037566119   -1.7171034 
   80000    9.5751477   -1.7475893  0.045794344    -1.701795 
   81000    9.3379558   -1.7372512  0.044659944   -1.6925912 
   82000    10.563144   -1.7436246  0.050519561    -1.693105 
   83000     8.540237   -1.7609398  0.040844754    -1.720095 
   84000    6.3673917   -1.7615996  0.030452849   -1.7311467 
   85000    5.9767738   -1.7626924   0.02858467   -1.7341078 
   86000    5.5940769   -1.7686989  0.026754374   -1.7419445 
   87000    7.5902697   -1.7604223  0.036301416   -1.7241209 
   88000    6.4143736   -1.7695029  0.030677546   -1.7388253 
   89000    7.1206633   -1.7537114  0.034055465    -1.719656 
   90000    5.8907826   -1.7636856  0.028173406   -1.7355122 
   91000    6.9992652   -1.7680857  0.033474864   -1.7346108 
   92000    6.3571009    -1.769342  0.030403632   -1.7389384 
   93000    4.3893658   -1.7685594  0.020992692   -1.7475667 
   94000    6.0510437   -1.7694401  0.028939875   -1.7405002 
   95000    3.7115582     -1.77293  0.017750992    -1.755179 
   96000    5.3965344   -1.7726997  0.025809602   -1.7468901 
   97000    5.1420696   -1.7696172  0.024592593   -1.7450246 
   98000    5.6564047   -1.7743432  0.027052464   -1.7472907 
   99000    3.5253927    -1.777873  0.016860633   -1.7610123 
  100000    3.5105517   -1.7815851  0.016789653   -1.7647955 
  101000     2.637607   -1.7854207  0.012614686   -1.7728061 
  102000      2.56071   -1.7796535  0.012246917   -1.7674066 
  103000    2.4532958   -1.7860765  0.011733195   -1.7743433 
  104000    2.6967906    -1.785904  0.012897739   -1.7730062 
  105000    2.4629209   -1.7824721  0.011779228   -1.7706928 
  106000     2.354359   -1.7864981  0.011260017   -1.7752381 
  107000    2.4087772   -1.7867245  0.011520279   -1.7752042 
  108000    1.9901598   -1.7886744 0.0095181888   -1.7791562 
  109000    2.0765059   -1.7882261 0.0099311499    -1.778295 
  110000    2.3265582   -1.7891138  0.011127056   -1.7779867 
  111000    2.1627748   -1.7867067  0.010343742    -1.776363 
  112000    2.0254304   -1.7874855  0.009686875   -1.7777986 
  113000    2.1665294   -1.7906904  0.010361698   -1.7803287 
  114000    1.6304314   -1.7899679 0.0077977425   -1.7821701 
  115000    1.4797161   -1.7891996 0.0070769276   -1.7821227 
  116000    1.8057893   -1.7892254 0.0086364138    -1.780589 
  117000    3.0322627   -1.7874809  0.014502177   -1.7729787 
  118000    2.4971284   -1.7852163   0.01194283   -1.7732735 
  119000    3.3876395   -1.7785522  0.016201811   -1.7623504 
  120000    4.1997557   -1.7780059  0.020085858   -1.7579201 
  121000    4.0999397   -1.7770103  0.019608476   -1.7574018 
  122000    3.1731279   -1.7789465  0.015175882   -1.7637706 
  123000    4.1770707   -1.7807786  0.019977364   -1.7608013 
  124000    4.2154279   -1.7805773  0.020160812   -1.7604165 
  125000    4.0062422   -1.7756884  0.019160356   -1.7565281 
  126000    3.7818034    -1.771797  0.018086949     -1.75371 
  127000    2.8888612   -1.7801513  0.013816341   -1.7663349 
  128000    3.2443722   -1.7838541  0.015516617   -1.7683375 
  129000    3.6649033   -1.7798518   0.01752786   -1.7623239 
  130000    4.3819475   -1.7762383  0.020957213   -1.7552811 
  131000    2.8579188   -1.7782393  0.013668355   -1.7645709 
  132000    3.4864383   -1.7773356  0.016674328   -1.7606613 
  133000    3.2104526   -1.7776391  0.015354392   -1.7622847 
  134000    3.3152143   -1.7775286  0.015855428   -1.7616732 
  135000    3.5868545    -1.778365  0.017154581   -1.7612104 
  136000    3.5595261   -1.7756398   0.01702388    -1.758616 
  137000    3.2755354   -1.7754494  0.015665658   -1.7597838 
  138000    4.0122862   -1.7766976  0.019189262   -1.7575083 
  139000    3.8573081   -1.7771494   0.01844806   -1.7587013 
  140000    4.0368782   -1.7766423  0.019306876   -1.7573354 
  141000    2.9469416   -1.7792313  0.014094118   -1.7651372 
  142000    3.5563793   -1.7792882   0.01700883   -1.7622794 
  143000    3.8563108   -1.7821612   0.01844329   -1.7637179 
  144000    3.1488232   -1.7861381  0.015059642   -1.7710785 
  145000    1.9946507    -1.783801 0.0095396669   -1.7742613 
  146000    3.9642367   -1.7787605  0.018959459   -1.7598011 
  147000    3.3372693   -1.7775979  0.015960909    -1.761637 
  148000    3.7288419   -1.7785102  0.017833654   -1.7606766 
  149000    3.4867189   -1.7823748   0.01667567   -1.7656991 
  150000     3.413284   -1.7808428  0.016324459   -1.7645183 
  151000    3.5118054   -1.7792386  0.016795649    -1.762443 
  152000    3.4661935   -1.7792268  0.016577505   -1.7626493 
  153000    4.0577319    -1.778362  0.019406612   -1.7589554 
  154000    3.6993683   -1.7832092  0.017692693   -1.7655165 
  155000    4.4286416    -1.782655  0.021180534   -1.7614744 
  156000    3.3663499   -1.7783593  0.016099991   -1.7622593 
  157000    4.1267691   -1.7788321   0.01973679   -1.7590953 
  158000     2.682429   -1.7812889  0.012829053   -1.7684598 
  159000    3.2265119   -1.7823654  0.015431198   -1.7669343 
  160000    3.1393088   -1.7813076  0.015014138   -1.7662935 
  161000    4.0026797   -1.7777314  0.019143318   -1.7585881 
  162000    3.9170477   -1.7780311  0.018733772   -1.7592973 
  163000    3.6251743   -1.7788485   0.01733785   -1.7615107 
  164000    3.4332898   -1.7770424  0.016420139   -1.7606222 
  165000    3.7453871    -1.775489  0.017912783   -1.7575762 
  166000    4.7388294   -1.7645995  0.022664046   -1.7419355 
  167000    5.0149141   -1.7698709  0.023984455   -1.7458864 
  168000    4.6544239    -1.764907  0.022260366   -1.7426466 
  169000     4.321837    -1.763521  0.020669727   -1.7428513 
  170000    5.5143925   -1.7782193  0.026373274    -1.751846 
  171000    3.4468864     -1.77708  0.016485166   -1.7605948 
  172000    3.5282675   -1.7844719  0.016874382   -1.7675975 
  173000    3.9506288   -1.7822977  0.018894377   -1.7634034 
  174000    3.6367227   -1.7792147  0.017393082   -1.7618217 
  175000    2.7856987   -1.7802025  0.013322953   -1.7668795 
  176000    3.4358321     -1.77937  0.016432298   -1.7629377 
  177000    3.2945013   -1.7811348  0.015756366   -1.7653784 
  178000    3.7113516   -1.7807414  0.017750004   -1.7629914 
  179000    3.4286706    -1.775516  0.016398047   -1.7591179 
  180000    4.9896237   -1.7727445  0.023863501    -1.748881 
  181000    5.0800008   -1.7762062  0.024295741   -1.7519105 
  182000    4.5027232   -1.7704136  0.021534838   -1.7488788 
  183000    4.7735871   -1.7722223  0.022830279    -1.749392 
  184000    4.6783131   -1.7739149  0.022374619   -1.7515403 
  185000    4.2493765   -1.7690835  0.020323176   -1.7487604 
  186000    4.4935416   -1.7729177  0.021490926   -1.7514268 
  187000    5.4815634    -1.773297  0.026216264   -1.7470808 
  188000    5.2051694   -1.7730353  0.024894375   -1.7481409 
  189000     5.334973   -1.7691346  0.025515177   -1.7436194 
  190000    4.9013529   -1.7674623  0.023441335    -1.744021 
  191000    4.9507305   -1.7722673  0.023677489   -1.7485899 
  192000    5.6848554   -1.7705623  0.027188534   -1.7433737 
  193000    4.2662089   -1.7694798  0.020403679   -1.7490762 
  194000    4.1081096   -1.7740156  0.019647549    -1.754368 
  195000    4.1378109   -1.7678637    0.0197896   -1.7480741 
  196000    5.4669191   -1.7720994  0.026146226   -1.7459532 
  197000    6.0141617   -1.7769797  0.028763482   -1.7482162 
  198000    4.7437135   -1.7665532  0.022687404   -1.7438658 
  199000    3.6131556   -1.7676984   0.01728037    -1.750418 
  200000    5.1962945   -1.7683627   0.02485193   -1.7435108 
  201000    4.6778958   -1.7684687  0.022372623   -1.7460961 
  202000    3.2228789   -1.7737969  0.015413822   -1.7583831 
  203000    4.2003569   -1.7726255  0.020088733   -1.7525368 
  204000    5.2343041    -1.768033  0.025033716   -1.7429993 
  205000    4.6074697   -1.7621823  0.022035802   -1.7401465 
  206000    8.6174036   -1.7588309  0.041213813   -1.7176171 
  207000    8.2179185   -1.7569301  0.039303225   -1.7176269 
  208000    5.4349939   -1.7607882   0.02599354   -1.7347946 
  209000    6.9161712   -1.7472391  0.033077456   -1.7141616 
  210000    6.0933812   -1.7603258  0.029142359   -1.7311835 
  211000     7.919889   -1.7627107  0.037877862   -1.7248328 
  212000    6.0122431   -1.7613959  0.028754306   -1.7326416 
  213000    6.7934161   -1.7533358  0.032490364   -1.7208454 
  214000    7.0483304   -1.7578838  0.033709524   -1.7241743 
  215000    8.5106546   -1.7618255  0.040703272   -1.7211222 
  216000    6.7936056   -1.7663173  0.032491271   -1.7338261 
  217000    5.9947737   -1.7535638  0.028670757    -1.724893 
  218000    6.5337081   -1.7607962  0.031248278   -1.7295479 
  219000    6.4144714   -1.7602832  0.030678014   -1.7296052 
  220000    7.3451236    -1.768793  0.035128974    -1.733664 
  221000    6.6227136   -1.7626585  0.031673958   -1.7309846 
  222000    7.7623698   -1.7549906  0.037124507   -1.7178661 
  223000    5.6795347   -1.7545159  0.027163087   -1.7273528 
  224000    6.7511304   -1.7653203  0.032288127   -1.7330322 
  225000    7.0118207   -1.7658753  0.033534912   -1.7323404 
  226000    6.7681468   -1.7541276  0.032369511   -1.7217581 
  227000    7.0171908    -1.763744  0.033560595   -1.7301834 
  228000    5.6059009   -1.7619546  0.026810924   -1.7351436 
  229000    6.7925671   -1.7681694  0.032486304   -1.7356831 
  230000    5.7572484   -1.7661928  0.027534762    -1.738658 
  231000    4.7166879   -1.7650821  0.022558151   -1.7425239 
  232000    3.8305888   -1.7683131  0.018320271   -1.7499928 
  233000    4.5424605   -1.7637418  0.021724887   -1.7420169 
  234000    7.4817725   -1.7571607  0.035782515   -1.7213782 
  235000    6.3766103   -1.7616971  0.030496938   -1.7312002 
  236000    4.7530114   -1.7607466  0.022731873   -1.7380148 
  237000    6.3723204   -1.7643852  0.030476421   -1.7339088 
  238000      6.75581   -1.7648925  0.032310508    -1.732582 
  239000    5.9101632   -1.7621007  0.028266096   -1.7338346 
  240000    6.3681732   -1.7738428  0.030456587   -1.7433863 
  241000    6.4182702     -1.76059  0.030696182   -1.7298939 
  242000    7.8182499   -1.7604959   0.03739176   -1.7231042 
  243000    5.5942572   -1.7566725  0.026755236   -1.7299173 
  244000    7.6039974   -1.7595837  0.036367071   -1.7232166 
  245000    5.0849686   -1.7612805    0.0243195    -1.736961 
  246000    6.3558522   -1.7577938   0.03039766   -1.7273961 
  247000    6.7099684   -1.7642821  0.032091265   -1.7321908 
  248000    5.3952531    -1.763074  0.025803475   -1.7372705 
  249000     7.566944   -1.7577413  0.036189858   -1.7215515 
  250000    5.8194941   -1.7641402   0.02783246   -1.7363078 
  251000    4.9970514   -1.7627698  0.023899025   -1.7388707 
  252000    4.2450483   -1.7759727  0.020302476   -1.7556702 
  253000    5.1686071   -1.7755249  0.024719512   -1.7508054 
  254000    4.6884005   -1.7721883  0.022422863   -1.7497654 
  255000    4.4958804   -1.7639646  0.021502111   -1.7424625 
  256000    7.3288638   -1.7637765   0.03505121   -1.7287253 
  257000    5.9853915   -1.7628969  0.028625885    -1.734271 
  258000    5.5030236   -1.7647938    0.0263189   -1.7384749 
  259000    5.8708714   -1.7616787  0.028078179   -1.7336006 
  260000    5.0895385   -1.7572319  0.024341356   -1.7328905 
  261000    6.4604662    -1.748938   0.03089799     -1.71804 
  262000    7.8007476   -1.7549703  0.037308053   -1.7176622 
  263000    8.0424979   -1.7497922  0.038464255    -1.711328 
  264000     9.849586   -1.7462796   0.04710688   -1.6991727 
  265000    9.8572215   -1.7559394  0.047143398    -1.708796 
  266000    11.034499   -1.7475477  0.052773877   -1.6947738 
  267000    9.0233731   -1.7543718  0.043155413   -1.7112164 
  268000    9.3590023   -1.7368067  0.044760602   -1.6920461 
  269000     7.292924   -1.7526644  0.034879323   -1.7177851 
  270000    9.2036637   -1.7451501  0.044017675   -1.7011324 
  271000    8.4930256   -1.7462433   0.04061896   -1.7056244 
  272000    8.9045573   -1.7479952  0.042587161    -1.705408 
  273000    8.3672191   -1.7580251  0.040017274   -1.7180079 
  274000    10.695136   -1.7413469  0.051150829    -1.690196 
  275000    9.2852198   -1.7461309  0.044407728   -1.7017231 
  276000    9.3958381   -1.7504975  0.044936774   -1.7055607 
  277000    10.125027   -1.7550088  0.048424209   -1.7065846 
  278000    9.7267062   -1.7407405  0.046519192   -1.6942213 
  279000    9.0914748   -1.7368413  0.043481118   -1.6933602 
  280000    10.895632   -1.7394736  0.052109728   -1.6873639 
  281000    14.834969    -1.712025  0.070950099   -1.6410749 
  282000     11.01476   -1.7305091  0.052679472   -1.6778296 
  283000    9.9422372   -1.7331916  0.047549996   -1.6856416 
  284000    8.3608812   -1.7411389  0.039986962   -1.7011519 
  285000     7.061829   -1.7346584  0.033774083   -1.7008844 
  286000     10.06066   -1.7520278  0.048116369   -1.7039115 
  287000    10.070019   -1.7621041  0.048161127    -1.713943 
  288000    10.620195   -1.7339502  0.050792413   -1.6831578 
  289000     11.17006   -1.7511462   0.05342221    -1.697724 
  290000    8.5248832    -1.749359  0.040771322   -1.7085877 
  291000    9.1372245   -1.7466781  0.043699922   -1.7029782 
  292000     11.75442   -1.7303766  0.056216988   -1.6741596 
  293000    9.6487455   -1.7446348  0.046146335   -1.6984884 
  294000     8.108298   -1.7380931  0.038778952   -1.6993142 
  295000    8.6753917   -1.7441555  0.041491148   -1.7026644 
  296000    9.8295168   -1.7501297  0.047010897   -1.7031188 
  297000    8.6691077   -1.7469289  0.041461094   -1.7054678 
  298000    8.8059001   -1.7369905  0.042115321   -1.6948752 
  299000     9.591885    -1.741318  0.045874393   -1.6954436 
  300000    8.6752535   -1.7488513  0.041490487   -1.7073609 
  301000    6.6549269   -1.7613343  0.031828022   -1.7295062 
  302000    5.6359191   -1.7531529   0.02695449   -1.7261984 
  303000    5.2577567   -1.7673721   0.02514588   -1.7422262 
  304000    7.8427732   -1.7610775  0.037509046   -1.7235684 
  305000    6.5315356   -1.7565001  0.031237888   -1.7252622 
  306000    6.9451464   -1.7649779  0.033216033   -1.7317619 
  307000    7.0299503   -1.7580943  0.033621619   -1.7244727 
  308000    8.2188806   -1.7693266  0.039307827   -1.7300188 
  309000    4.1355203    -1.758104  0.019778644   -1.7383253 
  310000    6.9708697   -1.7602908  0.033339058   -1.7269518 
  311000     7.406716   -1.7626986  0.035423548   -1.7272751 
  312000    6.5323988   -1.7739864  0.031242016   -1.7427443 
  313000    7.7524492   -1.7579425   0.03707706   -1.7208655 
  314000    5.9926131   -1.7631759  0.028660423   -1.7345155 
  315000    6.3685421   -1.7611048  0.030458351   -1.7306464 
  316000    6.1598274   -1.7636122  0.029460147   -1.7341521 
  317000    4.9810935    -1.776334  0.023822704   -1.7525113 
  318000     4.813669   -1.7829731  0.023021975   -1.7599511 
  319000    4.4559733    -1.777829  0.021311251   -1.7565177 
  320000    3.6718588   -1.7807243  0.017561125   -1.7631632 
  321000    4.0657085   -1.7759254  0.019444761   -1.7564807 
  322000    2.9790735   -1.7818574  0.014247793   -1.7676096 
  323000    3.2179766   -1.7748168  0.015390377   -1.7594264 
  324000    3.3421156   -1.7783719  0.015984087   -1.7623878 
  325000    3.3401925   -1.7825346  0.015974889   -1.7665598 
  326000    3.8074096   -1.7783617  0.018209414   -1.7601523 
  327000    4.2238664   -1.7796062  0.020201171   -1.7594051 
  328000    3.6891127   -1.7826247  0.017643644    -1.764981 
  329000    3.5705968   -1.7757658  0.017076827   -1.7586889 
  330000    3.6415806   -1.7760267  0.017416316   -1.7586104 
  331000    3.7210508   -1.7746178  0.017796392   -1.7568214 
  332000    5.0651982    -1.767444  0.024224945    -1.743219 
  333000    4.7238871   -1.7711216  0.022592582    -1.748529 
  334000    4.7434956   -1.7658511  0.022686363   -1.7431648 
  335000    6.7014886   -1.7570039  0.032050709   -1.7249532 
  336000     5.475342   -1.7745142  0.026186509   -1.7483277 
  337000    7.0075812   -1.7542503  0.033514635   -1.7207357 
  338000    9.2536799   -1.7455849  0.044256884    -1.701328 
  339000    10.183089   -1.7400763  0.048701901   -1.6913744 
  340000    8.2390866   -1.7532969  0.039404465   -1.7138925 
  341000    11.383414   -1.7432567  0.054442605   -1.6888141 
  342000    8.6718861   -1.7469326  0.041474382   -1.7054583 
  343000    7.8083464   -1.7482895  0.037344396   -1.7109451 
  344000    9.9382328   -1.7375937  0.047530844   -1.6900629 
  345000    10.275538   -1.7353043   0.04914405   -1.6861603 
  346000    10.529595   -1.7125473  0.050359107   -1.6621882 
  347000    11.841754   -1.7465331  0.056634675   -1.6898985 
  348000    13.274481   -1.7228109  0.063486867    -1.659324 
  349000    12.063544   -1.7255539  0.057695413   -1.6678585 
  350000    10.042139   -1.7443914  0.048027788   -1.6963636 
  351000    11.287071   -1.7205014  0.053981832   -1.6665196 
  352000     17.79233   -1.6970661  0.085094047    -1.611972 
  353000     12.96438   -1.6913185  0.062003772   -1.6293147 
  354000    14.337693     -1.72713  0.068571814   -1.6585582 
  355000    20.771756   -1.6878145  0.099343526    -1.588471 
  356000     13.55721   -1.7106111  0.064839055   -1.6457721 
  357000    21.104298   -1.7036729   0.10093395    -1.602739 
  358000    13.594947   -1.7109027  0.065019541   -1.6458831 
  359000    19.467013      -1.7099   0.09310343   -1.6167965 
  360000    19.856387   -1.7062091  0.094965662   -1.6112434 
  361000    16.253765   -1.7100825  0.077735667   -1.6323469 
  362000    16.002513   -1.6893111  0.076534023   -1.6127771 
  363000     15.70439   -1.7038973  0.075108212   -1.6287891 
  364000    17.521711   -1.7046153   0.08379978   -1.6208155 
  365000    16.510154   -1.7122122   0.07896188   -1.6332504 
  366000    14.889554   -1.7013677   0.07121116   -1.6301566 
  367000    15.704649   -1.7224151  0.075109453   -1.6473056 
  368000     14.28527   -1.6794381  0.068321093    -1.611117 
  369000    14.606535     -1.70571  0.069857585   -1.6358524 
  370000    17.366165   -1.7034685  0.083055862   -1.6204127 
  371000     18.03866   -1.6962324  0.086272153   -1.6099602 
  372000    15.221686   -1.7112528  0.072799621   -1.6384532 
  373000    14.976813   -1.7051305  0.071628485    -1.633502 
  374000    12.953518   -1.7034727  0.061951824   -1.6415209 
  375000    16.052036   -1.6942107  0.076770874   -1.6174398 
  376000    16.471589   -1.6988646   0.07877744   -1.6200871 
  377000     17.78182   -1.7121945  0.085043784   -1.6271507 
  378000    15.419185   -1.7132948  0.073744187   -1.6395506 
  379000    16.995223   -1.7076163  0.081281783   -1.6263345 
  380000    16.179861     -1.70336  0.077382213   -1.6259778 
  381000    15.428465   -1.7203818  0.073788568   -1.6465933 
  382000    20.738951   -1.6993134  0.099186633   -1.6001267 
  383000    15.013338   -1.6918818  0.071803172   -1.6200786 
  384000    17.466848   -1.7172593  0.083537393   -1.6337219 
  385000    13.758435    -1.716608   0.06580144   -1.6508066 
  386000    13.496126   -1.7014939  0.064546917    -1.636947 
  387000    14.674224   -1.7068637  0.070181318   -1.6366824 
  388000    13.717099   -1.7026373  0.065603747   -1.6370336 
  389000    16.251817   -1.7129075  0.077726354   -1.6351811 
  390000    17.657415   -1.6938466    0.0844488   -1.6093978 
  391000    15.538367   -1.7238888  0.074314189   -1.6495746 
  392000    16.311735   -1.7017662  0.078012916   -1.6237533 
  393000    16.034829   -1.7079242  0.076688578   -1.6312356 
  394000    13.198881   -1.7176698  0.063125301   -1.6545445 
  395000    15.685413   -1.6914171  0.075017453   -1.6163996 
  396000    13.149292   -1.7074294  0.062888135   -1.6445413 
  397000    14.473545   -1.6751142  0.069221546   -1.6058926 
  398000    13.034033    -1.708699  0.062336895   -1.6463621 
  399000    19.693206   -1.6939315  0.094185224   -1.5997462 
  400000    19.179718   -1.6977698  0.091729407   -1.6060404 
  401000    18.556895   -1.6993822  0.088750677   -1.6106315 
  402000    14.580752   -1.7227617  0.069734272   -1.6530274 
  403000    12.924234   -1.6991317  0.061811767   -1.6373199 
  404000    17.195457   -1.7046381  0.082239431   -1.6223986 
  405000    16.266194   -1.7116562  0.077795111   -1.6338611 
  406000    17.995879   -1.7181208  0.086067546   -1.6320533 
  407000    13.834266   -1.7155574  0.066164112   -1.6493933 
  408000     18.05845   -1.7022712  0.086366801   -1.6159043 
  409000    17.608624   -1.7066511  0.084215453   -1.6224357 
  410000    15.287088   -1.6876661  0.073112414   -1.6145537 
  411000    14.799307    -1.696242   0.07077954   -1.6254625 
  412000    13.850167    -1.724268  0.066240159   -1.6580279 
  413000    19.651165   -1.6974158  0.093984161   -1.6034317 
  414000    14.996649   -1.6969908  0.071723352   -1.6252674 
  415000     15.30661   -1.6725124  0.073205779   -1.5993066 
  416000    16.658676   -1.7313399  0.079672208   -1.6516677 
  417000    13.096289   -1.7020778  0.062634645   -1.6394432 
  418000    16.772087   -1.6788686  0.080214608    -1.598654 
  419000    13.602042    -1.740716  0.065053473   -1.6756625 
  420000    12.892757   -1.7252169  0.061661226   -1.6635556 
  421000    10.398304   -1.7172195  0.049731194   -1.6674883 
  422000    12.200484    -1.737497  0.058350345   -1.6791467 
  423000    12.848823   -1.7412751  0.061451108    -1.679824 
  424000    9.1466009   -1.7052892  0.043744766   -1.6615444 
  425000    12.075864   -1.7337838  0.057754333   -1.6760295 
  426000    17.142776   -1.7399104  0.081987478   -1.6579229 
  427000    9.3956047   -1.7420917  0.044935658    -1.697156 
  428000    7.4318446   -1.7499107  0.035543728    -1.714367 
  429000    7.7090518   -1.7432769  0.036869507   -1.7064074 
  430000    10.019195   -1.7450714  0.047918058   -1.6971533 
  431000    7.7259232   -1.7450295  0.036950196   -1.7080793 
  432000    10.593794   -1.7498563  0.050666147   -1.6991902 
  433000    10.831254   -1.7451847  0.051801831   -1.6933829 
  434000    10.001771   -1.7445664  0.047834723   -1.6967316 
  435000    9.9290546   -1.7511367  0.047486948   -1.7036497 
  436000    9.8592836   -1.7487684   0.04715326   -1.7016151 
  437000    11.045861   -1.7554367  0.052828213   -1.7026085 
  438000    8.9342233   -1.7356659  0.042729043   -1.6929368 
  439000    14.635801   -1.7533941  0.069997553   -1.6833965 
  440000    9.8286796   -1.7440717  0.047006892   -1.6970648 
  441000    8.0817418   -1.7500005  0.038651943   -1.7113486 
  442000    10.296262   -1.7414728  0.049243166   -1.6922296 
  443000    17.018656   -1.7243597  0.081393856   -1.6429659 
  444000    11.928487   -1.7178151  0.057049483   -1.6607656 
  445000    9.6371502   -1.7517911  0.046090879   -1.7057002 
  446000    7.4803923   -1.7422324  0.035775914   -1.7064565 
  447000    9.0319428   -1.7409168  0.043196399   -1.6977204 
  448000    8.1283461   -1.7495858  0.038874834    -1.710711 
  449000    7.6519629   -1.7554885  0.036596472    -1.718892 
  450000    9.1923113    -1.741802  0.043963381   -1.6978386 
  451000    7.0677614   -1.7419104  0.033802455    -1.708108 
  452000    7.3765101   -1.7583499  0.035279084   -1.7230708 
  453000    7.7906554   -1.7563551  0.037259786   -1.7190953 
  454000    8.3836206    -1.739925  0.040095716   -1.6998293 
  455000     9.142499   -1.7574444  0.043725148   -1.7137192 
  456000    9.2629938   -1.7421355  0.044301429   -1.6978341 
  457000    7.3104914     -1.74902  0.034963342   -1.7140566 
  458000    8.0008725    -1.746357  0.038265176   -1.7080918 
  459000    10.511636   -1.7516292  0.050273219    -1.701356 
  460000    8.1359566   -1.7457447  0.038911232   -1.7068335 
  461000    9.5548897   -1.7359944  0.045697458   -1.6902969 
  462000    9.2306242    -1.744806  0.044146617   -1.7006594 
  463000    9.0603636   -1.7512552  0.043332325   -1.7079229 
  464000    9.6650054   -1.7419597    0.0462241   -1.6957356 
  465000    10.525079   -1.7563367   0.05033751   -1.7059992 
  466000    8.7765957   -1.7532446  0.041975169   -1.7112695 
  467000     9.515266   -1.7367794  0.045507953   -1.6912714 
  468000    12.511445   -1.7509763  0.059837555   -1.6911387 
  469000    8.3053496   -1.7534869  0.039721376   -1.7137655 
  470000    8.0865897   -1.7603962  0.038675129   -1.7217211 
  471000     7.006888     -1.75101   0.03351132   -1.7174987 
  472000    8.2073283   -1.7303319  0.039252577   -1.6910793 
  473000    14.481635    -1.748345  0.069260236   -1.6790848 
  474000    12.537905   -1.7205539  0.059964101   -1.6605898 
  475000    11.398979   -1.7314377  0.054517046   -1.6769207 
  476000    11.659186   -1.7318356   0.05576152   -1.6760741 
  477000    13.569036   -1.7264878  0.064895614   -1.6615922 
  478000    15.277442    -1.726289  0.073066282   -1.6532227 
  479000    12.783533    -1.733067  0.061138847   -1.6719282 
  480000    12.602082   -1.7315346  0.060271038   -1.6712636 
  481000    11.768854    -1.733904  0.056286019    -1.677618 
  482000    8.9141045   -1.7525006  0.042632822   -1.7098677 
  483000    8.6136452   -1.7485646  0.041195838   -1.7073688 
  484000    8.3612463   -1.7447197  0.039988709    -1.704731 
  485000    12.231904    -1.727438  0.058500614   -1.6689374 
  486000    13.758815    -1.730216  0.065803257   -1.6644128 
  487000     11.75857   -1.7410617  0.056236834   -1.6848248 
  488000    13.503174   -1.7324978  0.064580625   -1.6679172 
  489000    12.873639   -1.7080968  0.061569792    -1.646527 
  490000    15.824588   -1.7538806  0.075683075   -1.6781975 
  491000    9.6287809   -1.7543404  0.046050852   -1.7082896 
  492000    8.7655197   -1.7472715  0.041922197   -1.7053493 
  493000    9.4137443   -1.7542646  0.045022412   -1.7092421 
  494000    10.952262   -1.7564322  0.052380567   -1.7040516 
  495000    10.369018   -1.7311751   0.04959113    -1.681584 
  496000    9.7448148   -1.7457242  0.046605798   -1.6991184 
  497000    10.745706   -1.7326827  0.051392685     -1.68129 
  498000    12.038298   -1.7306312  0.057574668   -1.6730566 
  499000    12.646248   -1.7333484  0.060482266   -1.6728661 
  500000    12.347718   -1.7305992  0.059054511   -1.6715447 
  501000    13.293211    -1.741429  0.063576446   -1.6778526 
  502000    8.3028352   -1.7494969   0.03970935   -1.7097875 
  503000    9.8870699   -1.7439715  0.047286151   -1.6966854 
  504000    8.4535873   -1.7564378  0.040430341   -1.7160075 
  505000    9.0078067   -1.7515546  0.043080965   -1.7084736 
  506000    10.339526   -1.7465279  0.049450079   -1.6970778 
  507000    8.2885359   -1.7477961  0.039640962   -1.7081552 
  508000    13.810681   -1.7190018  0.066051315   -1.6529505 
  509000    10.391026   -1.7360814  0.049696385    -1.686385 
  510000    10.312093    -1.734009  0.049318876   -1.6846901 
  511000    15.239756   -1.7365925  0.072886045   -1.6637065 
  512000    10.509443   -1.7093053  0.050262729   -1.6590426 
  513000    11.637502   -1.7375624  0.055657813   -1.6819046 
  514000    12.245994    -1.737007  0.058568002   -1.6784389 
  515000    12.758563   -1.7369216  0.061019429   -1.6759022 
  516000    7.5811305   -1.7445598  0.036257707   -1.7083021 
  517000    8.1077411   -1.7439771  0.038776288   -1.7052008 
  518000    9.0467603   -1.7487795  0.043267265   -1.7055122 
  519000    9.4638265   -1.7561803  0.045261937   -1.7109184 
  520000    5.9596115   -1.7560283  0.028502589   -1.7275257 
  521000    10.409004   -1.7442271  0.049782366   -1.6944448 
  522000    10.323589   -1.7486765  0.049373858   -1.6993026 
  523000    9.0742511   -1.7540187  0.043398743     -1.71062 
  524000    8.0909355   -1.7502701  0.038695913   -1.7115742 
  525000    11.386211   -1.7579137   0.05445598   -1.7034577 
  526000    8.3869416   -1.7462927    0.0401116   -1.7061811 
  527000    8.8714546    -1.744406  0.042428844   -1.7019772 
  528000    5.8701694   -1.7622743  0.028074821   -1.7341995 
  529000    6.6913778   -1.7646631  0.032002353   -1.7326607 
  530000    6.5632895    -1.760074  0.031389755   -1.7286843 
  531000    5.4851843   -1.7626458  0.026233582   -1.7364122 
  532000    6.1370145   -1.7593002  0.029351041   -1.7299491 
  533000    5.9135714    -1.767689  0.028282397   -1.7394066 
  534000    6.6354953   -1.7592336  0.031735088   -1.7274985 
  535000    6.5756474   -1.7616694  0.031448858   -1.7302205 
  536000    7.1356092   -1.7508054  0.034126946   -1.7166784 
  537000    5.7757826   -1.7587267  0.027623405   -1.7311033 
  538000    6.7665696   -1.7610308  0.032361967   -1.7286688 
  539000    7.8020922   -1.7560244  0.037314484   -1.7187099 
  540000    5.9105097   -1.7552411  0.028267754   -1.7269734 
  541000    5.7289384   -1.7617923  0.027399366    -1.734393 
  542000    6.8614222   -1.7539437  0.032815612   -1.7211281 
  543000    6.6334399    -1.759584  0.031725258   -1.7278587 
  544000    5.4929186   -1.7603428  0.026270572   -1.7340722 
  545000    5.8378774    -1.759092   0.02792038   -1.7311717 
  546000    5.9095094   -1.7590149   0.02826297   -1.7307519 
  547000    4.8817341   -1.7629823  0.023347505   -1.7396348 
  548000    6.1230063   -1.7685895  0.029284045   -1.7393055 
  549000    6.5193408   -1.7542843  0.031179564   -1.7231048 
  550000     6.954376   -1.7605293  0.033260175   -1.7272692 
  551000    7.2000877   -1.7577116  0.034435322   -1.7232763 
  552000    6.6639734   -1.7737039  0.031871288   -1.7418326 
  553000    5.3437461   -1.7703887  0.025557136   -1.7448316 
  554000    5.1781448    -1.764047  0.024765127   -1.7392819 
  555000     5.551337   -1.7602802  0.026549965   -1.7337302 
  556000    4.6367826   -1.7740957  0.022175994   -1.7519197 
  557000    6.3157694   -1.7766719  0.030205959    -1.746466 
  558000    3.5613136   -1.7808555  0.017032429   -1.7638231 
  559000    4.0549982   -1.7799516  0.019393537   -1.7605581 
  560000     3.273227   -1.7796369  0.015654619   -1.7639822 
  561000    4.4800693   -1.7662203  0.021426493   -1.7447938 
  562000    5.4873935    -1.778503  0.026244147   -1.7522589 
  563000    4.5882956   -1.7709594  0.021944099   -1.7490153 
  564000    4.2999144   -1.7723386   0.02056488   -1.7517737 
  565000    5.1110873   -1.7634034  0.024444416    -1.738959 
  566000    3.5799844   -1.7697864  0.017121724   -1.7526647 
  567000    6.4481633   -1.7649963   0.03083915   -1.7341571 
  568000    4.8336737   -1.7707291   0.02311765   -1.7476114 
  569000    4.3980651   -1.7634071  0.021034298   -1.7423728 
  570000    6.6524301   -1.7627982  0.031816081   -1.7309821 
  571000    6.9750151   -1.7535971  0.033358884   -1.7202382 
  572000    5.4035784    -1.765535  0.025843291   -1.7396917 
  573000    7.3661594   -1.7537365  0.035229581   -1.7185069 
  574000    6.4731834   -1.7628256  0.030958811   -1.7318668 
  575000     5.864934   -1.7622878  0.028049782    -1.734238 
  576000    5.2663214   -1.7590167  0.025186842   -1.7338299 
  577000    6.4068129   -1.7631556  0.030641386   -1.7325142 
  578000    6.9740889   -1.7560613  0.033354454   -1.7227069 
  579000    6.4557909   -1.7694718   0.03087563   -1.7385961 
  580000    7.0994655   -1.7596669  0.033954084   -1.7257128 
  581000    6.7528551   -1.7644295  0.032296376   -1.7321331 
  582000     6.055363   -1.7683233  0.028960533   -1.7393628 
  583000     4.890012    -1.776851  0.023387096   -1.7534639 
  584000    4.2868672   -1.7736357   0.02050248   -1.7531332 
  585000     7.279761   -1.7675657   0.03481637   -1.7327493 
  586000    5.6506941   -1.7679781  0.027025153   -1.7409529 
  587000    4.5168656   -1.7688508  0.021602476   -1.7472484 
  588000    4.1698055   -1.7763499  0.019942618   -1.7564073 
  589000    5.1488329   -1.7743666  0.024624939   -1.7497416 
  590000    5.6024452   -1.7703561  0.026794396   -1.7435617 
  591000    4.6336438   -1.7708258  0.022160982   -1.7486649 
  592000    5.1868753   -1.7712145  0.024806881   -1.7464076 
  593000    4.4483328   -1.7745071  0.021274709   -1.7532323 
  594000    4.2719538   -1.7718828  0.020431155   -1.7514516 
  595000    5.0988284   -1.7642925  0.024385786   -1.7399067 
  596000    5.3782525   -1.7677015  0.025722167   -1.7419793 
  597000     4.664764   -1.7691537  0.022309819   -1.7468439 
  598000    5.4325222   -1.7803723  0.025981719   -1.7543906 
  599000    4.7610295   -1.7674779   0.02277022   -1.7447076 
  600000    4.8844689   -1.7708864  0.023360585   -1.7475259 
  601000    5.3596422   -1.7646313  0.025633161   -1.7389981 
  602000     6.908268   -1.7588365  0.033039658   -1.7257969 
  603000    7.0505642   -1.7618499  0.033720207   -1.7281297 
  604000    6.7498427   -1.7532798  0.032281969   -1.7209978 
  605000    6.2973631   -1.7639145  0.030117929   -1.7337965 
  606000    7.9501383   -1.7610432  0.038022533   -1.7230207 
  607000    8.2056943   -1.7599471  0.039244762   -1.7207023 
  608000    7.4833526   -1.7621017  0.035790072   -1.7263116 
  609000    5.6801513   -1.7538321  0.027166035    -1.726666 
  610000    10.612088   -1.7482039  0.050753641   -1.6974503 
  611000    8.9389981   -1.7417686  0.042751879   -1.6990167 
  612000    8.7664263   -1.7513381  0.041926533   -1.7094116 
  613000    9.1686814    -1.767296  0.043850368   -1.7234456 
  614000    7.9310527   -1.7637754  0.037931254   -1.7258441 
  615000    5.5583516    -1.770957  0.026583513   -1.7443734 
  616000    5.6754052   -1.7703168  0.027143337   -1.7431734 
  617000    4.6175378    -1.773393  0.022083953    -1.751309 
  618000    5.1263979   -1.7760619  0.024517641   -1.7515443 
  619000    5.1905337   -1.7700234  0.024824378    -1.745199 
  620000    4.8857971   -1.7658733  0.023366937   -1.7425064 
  621000    4.7875127   -1.7713436   0.02289688   -1.7484467 
  622000    5.1488565   -1.7688348  0.024625052   -1.7442098 
  623000    4.9377032   -1.7819927  0.023615185   -1.7583775 
  624000    4.9817959   -1.7689299  0.023826063   -1.7451039 
  625000    4.6763068   -1.7653144  0.022365024   -1.7429494 
  626000    4.6963919   -1.7721498  0.022461083   -1.7496888 
  627000    4.9773798   -1.7767431  0.023804943   -1.7529382 
  628000    3.1022613   -1.7769909  0.014836953    -1.762154 
  629000    2.9372265   -1.7781517  0.014047654   -1.7641041 
  630000    3.0841289   -1.7701502  0.014750233      -1.7554 
  631000    5.4250971   -1.7702968  0.025946207   -1.7443506 
  632000    5.3440288   -1.7770113  0.025558488   -1.7514528 
  633000    3.2281465    -1.777848  0.015439015    -1.762409 
  634000     3.506887   -1.7776985  0.016772127   -1.7609264 
  635000    3.6727127   -1.7759989  0.017565209   -1.7584336 
  636000    4.3385511   -1.7767816  0.020749665   -1.7560319 
  637000    3.8691687   -1.7766497  0.018504784   -1.7581449 
  638000    5.4735857   -1.7721632   0.02617811   -1.7459851 
  639000    5.0476191   -1.7737433  0.024140871   -1.7496024 
  640000    4.6368835    -1.763641  0.022176477   -1.7414645 
  641000    5.5051007   -1.7719379  0.026328834   -1.7456091 
  642000    4.4887164   -1.7762575  0.021467849   -1.7547896 
  643000    4.8032829   -1.7785677  0.022972303   -1.7555954 
  644000    4.8087962   -1.7684309  0.022998671   -1.7454323 
  645000    5.5322075   -1.7677041  0.026458476   -1.7412457 
  646000    6.7139422   -1.7619573   0.03211027    -1.729847 
  647000     8.800112   -1.7521427  0.042087639   -1.7100551 
  648000    7.8153478   -1.7486942  0.037377881   -1.7113163 
  649000    9.4678048    -1.744377  0.045280963    -1.699096 
  650000    7.8982611   -1.7393825  0.037774424   -1.7016081 
  651000     12.74598   -1.7299901  0.060959246   -1.6690308 
  652000    12.274042   -1.7356618  0.058702142   -1.6769597 
  653000    10.514552   -1.7240026  0.050287162   -1.6737155 
  654000    12.849463   -1.6866271  0.061454168   -1.6251729 
  655000    19.973459   -1.7096396  0.095525573    -1.614114 
  656000    14.909474   -1.7249082  0.071306428   -1.6536018 
  657000    13.696316   -1.7037235  0.065504348   -1.6382192 
  658000    16.624488   -1.7074274  0.079508697   -1.6279187 
  659000    16.905596   -1.7232049  0.080853131   -1.6423518 
  660000     12.24899   -1.7427292  0.058582329   -1.6841468 
  661000    10.820778   -1.7286617  0.051751726     -1.67691 
  662000    12.001851   -1.7173211  0.057400355   -1.6599207 
  663000    13.336556   -1.7385746  0.063783753   -1.6747909 
  664000    11.348885   -1.7132965  0.054277463   -1.6590191 
  665000    10.782959   -1.7368958  0.051570855   -1.6853249 
  666000    11.865077   -1.7343072   0.05674622   -1.6775609 
  667000    11.289609   -1.7293801   0.05399397   -1.6753862 
  668000    12.259797   -1.7255994  0.058634018   -1.6669654 
  669000    12.625309   -1.7358243  0.060382123   -1.6754422 
  670000    13.507848   -1.7325182  0.064602978   -1.6679152 
  671000    12.424762   -1.7276953  0.059422983   -1.6682723 
  672000    13.747635   -1.7263021  0.065749789   -1.6605523 
  673000    10.835999   -1.7308316  0.051824524    -1.679007 
  674000    12.439692   -1.7286209  0.059494388   -1.6691265 
  675000      12.6947   -1.7381526  0.060713995   -1.6774386 
  676000    15.938469   -1.7290303  0.076227728   -1.6528026 
  677000    10.087615   -1.7350433  0.048245282    -1.686798 
  678000    13.248361   -1.7405723  0.063361948   -1.6772104 
  679000    11.728632   -1.7226379  0.056093655   -1.6665442 
  680000    11.108223   -1.7296655  0.053126469    -1.676539 
  681000     15.66715   -1.7333971  0.074930108    -1.658467 
  682000     13.63627   -1.7319447   0.06521717   -1.6667276 
  683000    10.574346   -1.7179337  0.050573136   -1.6673606 
  684000    11.039716   -1.7306062  0.052798828   -1.6778074 
  685000    11.643298   -1.6991576  0.055685534   -1.6434721 
  686000    15.784973   -1.7053521  0.075493614   -1.6298585 
  687000    15.052685   -1.7156968  0.071991353   -1.6437055 
  688000     13.85033   -1.6979089  0.066240938    -1.631668 
  689000    16.726879   -1.7028219  0.079998394   -1.6228235 
  690000     18.10049   -1.7229493  0.086567865   -1.6363814 
  691000    14.014686   -1.7317715  0.067026993   -1.6647445 
  692000    9.0775321   -1.7279984  0.043414435    -1.684584 
  693000    11.982754   -1.7192247  0.057309023   -1.6619157 
  694000    12.619709   -1.7260706   0.06035534   -1.6657153 
  695000    12.399527   -1.7430733  0.059302291    -1.683771 
  696000     13.72603   -1.7133589  0.065646457   -1.6477125 
  697000    11.413432   -1.7242773  0.054586171   -1.6696912 
  698000    13.472611   -1.7320446  0.064434451   -1.6676102 
  699000    15.391714   -1.7403769    0.0736128   -1.6667641 
  700000    15.624475   -1.7085596  0.074726009   -1.6338336 
  701000    19.819969   -1.7117703  0.094791487   -1.6169788 
  702000     17.87207   -1.7180383  0.085475415   -1.6325629 
  703000    12.216369   -1.7030445  0.058426317   -1.6446182 
  704000    11.756932   -1.6963332  0.056229003   -1.6401042 
  705000    15.007976   -1.7158793  0.071777525   -1.6441018 
  706000    15.470983   -1.7111003  0.073991917   -1.6371084 
  707000    13.168015   -1.7076844  0.062977683   -1.6447067 
  708000    17.197265   -1.6982128  0.082248078   -1.6159647 
  709000     17.94383   -1.7042936  0.085818615    -1.618475 
  710000    18.753978   -1.6951954  0.089693249   -1.6055021 
  711000    12.458743   -1.7059124  0.059585499   -1.6463269 
  712000    18.989522   -1.7093667  0.090819771   -1.6185469 
  713000    16.836079   -1.6926901   0.08052066   -1.6121694 
  714000    13.265757   -1.7099505  0.063445145   -1.6465054 
  715000    19.005304   -1.6978374  0.090895247   -1.6069422 
  716000    16.193351   -1.7290624   0.07744673   -1.6516157 
  717000    11.756601   -1.7295293  0.056227417   -1.6733019 
  718000    11.855827   -1.7296016  0.056701978   -1.6728997 
  719000    10.505478    -1.735845  0.050243768   -1.6856012 
  720000    11.465757   -1.7396567  0.054836421   -1.6848202 
  721000    7.4381972   -1.7445346   0.03557411   -1.7089605 
  722000    7.7881961   -1.7331648  0.037248024   -1.6959167 
  723000    12.666489   -1.7370681  0.060579074    -1.676489 
  724000      11.4433    -1.726304  0.054729019    -1.671575 
  725000    11.827089   -1.7348809  0.056564535   -1.6783164 
  726000    13.517713   -1.7427151  0.064650156    -1.678065 
  727000    8.3275956   -1.7382802   0.03982777   -1.6984524 
  728000    12.684507   -1.7270786  0.060665246   -1.6664133 
  729000    10.883918   -1.7352333  0.052053704   -1.6831796 
  730000    11.842394   -1.7354294  0.056637734   -1.6787917 
  731000    10.500725   -1.7343305  0.050221035   -1.6841094 
  732000     9.971725   -1.7515375  0.047691025   -1.7038465 
  733000    9.3258912   -1.7589364  0.044602244   -1.7143342 
  734000    6.6337426    -1.766993  0.031726706   -1.7352663 
  735000    7.2158412   -1.7552201  0.034510665   -1.7207094 
  736000     6.147518   -1.7637109  0.029401276   -1.7343096 
  737000    6.4897674   -1.7680905  0.031038126   -1.7370523 
  738000    5.8198819   -1.7739703  0.027834315   -1.7461359 
  739000    5.2648525   -1.7729311  0.025179817   -1.7477513 
  740000    4.2354094   -1.7696707  0.020256376   -1.7494144 
  741000    6.4513801   -1.7604903  0.030854534   -1.7296357 
  742000    6.1158043   -1.7633892  0.029249601   -1.7341396 
  743000    7.2296269   -1.7614011  0.034576597   -1.7268246 
  744000    8.0155552    -1.757576  0.038335397   -1.7192406 
  745000    7.9068415   -1.7668783  0.037815461   -1.7290628 
  746000    7.4722716   -1.7669116  0.035737075   -1.7311746 
  747000    7.2387163   -1.7582575  0.034620068   -1.7236374 
  748000    6.2011852   -1.7660152  0.029657946   -1.7363573 
  749000    6.5483471   -1.7665283  0.031318291     -1.73521 
  750000     8.082173   -1.7687397  0.038654005   -1.7300857 
  751000    6.9979281   -1.7589554  0.033468469   -1.7254869 
  752000    7.6592771   -1.7638082  0.036631453   -1.7271767 
  753000    5.9628202   -1.7677326  0.028517935   -1.7392147 
  754000    6.3269265   -1.7656136  0.030259319   -1.7353543 
  755000    7.0056812   -1.7543525  0.033505549    -1.720847 
  756000    6.4932229   -1.7630462  0.031054652   -1.7319916 
  757000    6.0960967   -1.7608013  0.029155347   -1.7316459 
  758000    5.5463702   -1.7660463  0.026526211   -1.7395201 
  759000    7.8596834   -1.7632935  0.037589921   -1.7257035 
  760000    6.9875211   -1.7607657  0.033418695    -1.727347 
  761000    6.3331814   -1.7546506  0.030289234   -1.7243613 
  762000    8.4086378   -1.7396038  0.040215365   -1.6993884 
  763000    9.1991389   -1.7536053  0.043996035   -1.7096093 
  764000     9.043727   -1.7503933  0.043252758   -1.7071405 
  765000    6.2850435   -1.7639751  0.030059008   -1.7339161 
  766000    6.8306451   -1.7607748  0.032668416   -1.7281064 
  767000    8.1893712   -1.7700168  0.039166694   -1.7308501 
  768000    5.3349236   -1.7684283  0.025514941   -1.7429133 
  769000    4.2086601    -1.772563  0.020128444   -1.7524345 
  770000    3.9550145   -1.7717838  0.018915353   -1.7528685 
  771000    4.0187136   -1.7740829  0.019220002   -1.7548629 
  772000    5.4788366   -1.7722699  0.026203223   -1.7460667 
  773000    4.6281235   -1.7744223  0.022134581   -1.7522878 
  774000    4.8246699   -1.7668969  0.023074589   -1.7438224 
  775000    5.8063581   -1.7687482  0.027769635   -1.7409786 
  776000    5.1510089    -1.768825  0.024635346   -1.7441896 
  777000    5.3401663   -1.7732721  0.025540015   -1.7477321 
  778000    3.8635197   -1.7842031  0.018477767   -1.7657253 
  779000    3.0719172   -1.7762706  0.014691829   -1.7615787 
  780000    3.0912065   -1.7814623  0.014784083   -1.7666782 
  781000    3.8745642   -1.7802476  0.018530589    -1.761717 
  782000    3.7998665   -1.7747868  0.018173338   -1.7566134 
  783000    3.9382258    -1.783287  0.018835058   -1.7644519 
  784000    3.6708442   -1.7762917  0.017556273   -1.7587354 
  785000    3.7886824    -1.778447  0.018119849   -1.7603271 
  786000    3.7344374   -1.7763707  0.017860415   -1.7585103 
  787000    3.8844823   -1.7802183  0.018578023   -1.7616403 
  788000    4.0741997   -1.7782326  0.019485371   -1.7587472 
  789000    3.5519841   -1.7788411  0.016987809   -1.7618533 
  790000     4.358959   -1.7789018  0.020847268   -1.7580546 
  791000    3.6344419   -1.7723572  0.017382174    -1.754975 
  792000    3.7738238   -1.7813353  0.018048786   -1.7632865 
  793000    4.1870279   -1.7792501  0.020024986   -1.7592251 
  794000    3.4537297   -1.7748194  0.016517895   -1.7583015 
  795000    3.6327315   -1.7795931  0.017373994   -1.7622191 
  796000       4.6268   -1.7728927  0.022128251   -1.7507645 
  797000    2.7753216   -1.7806438  0.013273324   -1.7673705 
  798000    3.7920533   -1.7787908   0.01813597   -1.7606548 
  799000    4.3126744   -1.7775482  0.020625906   -1.7569223 
  800000     3.286561    -1.779517   0.01571839   -1.7637986 
  801000    3.6958178   -1.7768517  0.017675712    -1.759176 
  802000    3.0649457   -1.7818826  0.014658487   -1.7672241 
  803000     2.746189   -1.7776981  0.013133993   -1.7645641 
  804000    3.2282439   -1.7788023  0.015439481   -1.7633629 
  805000    3.4535429    -1.774852  0.016517002    -1.758335 
  806000    3.8892687    -1.775447  0.018600915   -1.7568461 
  807000    4.4038145     -1.78404  0.021061795   -1.7629782 
  808000    4.5800467    -1.779703  0.021904648   -1.7577983 
  809000    3.1651957   -1.7781883  0.015137945   -1.7630504 
  810000    4.1521289   -1.7778331  0.019858077    -1.757975 
  811000     3.056799   -1.7730214  0.014619524   -1.7584019 
  812000    3.7475065   -1.7820962   0.01792292   -1.7641733 
  813000    3.8419364   -1.7777034  0.018374542   -1.7593288 
  814000    3.5006591   -1.7758037  0.016742341   -1.7590614 
  815000    2.9672995   -1.7816664  0.014191482   -1.7674749 
  816000    4.0388726   -1.7747503  0.019316415   -1.7554338 
  817000    3.0961771    -1.784115  0.014807855   -1.7693071 
  818000     3.556754   -1.7808243  0.017010622   -1.7638137 
  819000    4.0533243   -1.7755215  0.019385531    -1.756136 
  820000    3.9106866   -1.7729167  0.018703349   -1.7542133 
  821000    4.3601232   -1.7685969  0.020852836   -1.7477441 
  822000    4.4967316   -1.7741254  0.021506183   -1.7526192 
  823000    5.6616262   -1.7801733  0.027077437   -1.7530959 
  824000    4.8636846   -1.7750424  0.023261181   -1.7517813 
  825000    5.9530492   -1.7681062  0.028471204   -1.7396349 
  826000    6.1936134   -1.7698279  0.029621733   -1.7402062 
  827000    4.4237077   -1.7697311  0.021156936   -1.7485742 
  828000     5.495474   -1.7731354  0.026282793   -1.7468526 
  829000    5.7678543   -1.7659039  0.027585486   -1.7383184 
  830000     4.983242   -1.7672596  0.023832979   -1.7434267 
  831000    5.2143637   -1.7698421  0.024938348   -1.7449037 
  832000    4.4039079   -1.7775635  0.021062242   -1.7565013 
  833000    6.1204624   -1.7702771  0.029271879   -1.7410052 
  834000     5.208696    -1.763183  0.024911242   -1.7382717 
  835000    6.0757413   -1.7704751  0.029057995   -1.7414171 
  836000    5.9983357   -1.7732091  0.028687792   -1.7445213 
  837000    5.3424287   -1.7714484  0.025550835   -1.7458976 
  838000    4.2842251   -1.7716794  0.020489844   -1.7511896 
  839000    5.7557841   -1.7689311  0.027527759   -1.7414033 
  840000    5.8903812    -1.771012  0.028171486   -1.7428405 
  841000    5.4162321   -1.7717805  0.025903809   -1.7458767 
  842000    5.2953714   -1.7674835  0.025325777   -1.7421577 
  843000     5.120651   -1.7701176  0.024490155   -1.7456274 
  844000    5.5525906   -1.7722476  0.026555961   -1.7456917 
  845000    4.8476955   -1.7687663  0.023184712   -1.7455816 
  846000    5.1812595   -1.7768718  0.024780023   -1.7520918 
  847000     3.954636   -1.7714986  0.018913543   -1.7525851 
  848000    4.6825445    -1.769721  0.022394856   -1.7473262 
  849000    4.2860274   -1.7712197  0.020498463   -1.7507212 
  850000    5.8844665   -1.7643347  0.028143199   -1.7361915 
  851000    5.2179602   -1.7690678  0.024955549   -1.7441123 
  852000    4.9724243   -1.7683552  0.023781243    -1.744574 
  853000    5.0921775   -1.7681516  0.024353977   -1.7437976 
  854000    5.5803827   -1.7766175   0.02668888   -1.7499286 
  855000    4.9653212   -1.7700017  0.023747271   -1.7462544 
  856000    5.8882707   -1.7727418  0.028161393   -1.7445804 
  857000    4.1277337   -1.7734781  0.019741404   -1.7537367 
  858000    5.0569182   -1.7675421  0.024185345   -1.7433567 
  859000    4.4589682   -1.7729029  0.021325575   -1.7515773 
  860000    4.3349643   -1.7792014   0.02073251   -1.7584689 
  861000    5.6105184   -1.7765388  0.026833008   -1.7497058 
  862000    6.0785896   -1.7688573  0.029071617   -1.7397856 
  863000     5.097662   -1.7720203  0.024380207   -1.7476401 
  864000     4.356149    -1.772488  0.020833829   -1.7516542 
  865000    3.8451378   -1.7763752  0.018389853   -1.7579854 
  866000     5.866798   -1.7694164  0.028058697   -1.7413577 
  867000    6.1657244   -1.7696292   0.02948835   -1.7401409 
  868000    4.6955865   -1.7662166  0.022457231   -1.7437593 
  869000    4.4911398   -1.7748324  0.021479439    -1.753353 
  870000    4.5547077   -1.7761758  0.021783461   -1.7543923 
  871000     4.851258    -1.774214  0.023201749   -1.7510123 
  872000    4.7646621   -1.7678983  0.022787594   -1.7451107 
  873000    5.3268816   -1.7615877  0.025476479   -1.7361112 
  874000    5.7038116   -1.7659641  0.027279194   -1.7386849 
  875000     8.694442   -1.7564295  0.041582259   -1.7148473 
  876000    7.1555913   -1.7701168  0.034222512   -1.7358943 
  877000    5.4432972   -1.7507492  0.026033251    -1.724716 
  878000    6.8867732   -1.7600154  0.032936856   -1.7270786 
  879000    7.7248925   -1.7605187  0.036945267   -1.7235734 
  880000    6.2928756   -1.7598264  0.030096467   -1.7297299 
  881000    5.6726512    -1.773748  0.027130166   -1.7466178 
  882000    5.8760879   -1.7619955  0.028103127   -1.7338924 
  883000    7.3482494   -1.7582241  0.035143924   -1.7230802 
  884000    6.7077989   -1.7575685  0.032080889   -1.7254876 
  885000    5.6287527   -1.7535456  0.026920216   -1.7266254 
  886000    6.3253903   -1.7622587  0.030251972   -1.7320068 
  887000    8.5076617   -1.7515374  0.040688959   -1.7108485 
  888000     6.647274   -1.7558273  0.031791421   -1.7240359 
  889000    7.1947644   -1.7646107  0.034409863   -1.7302008 
  890000    8.2700059   -1.7652187   0.03955234   -1.7256663 
  891000    6.2651454   -1.7515237  0.029963843   -1.7215599 
  892000    5.6459527   -1.7580887  0.027002477   -1.7310863 
  893000    5.3276977   -1.7574111  0.025480382   -1.7319307 
  894000    6.3164213   -1.7643904  0.030209077   -1.7341813 
  895000    6.6649665   -1.7675894  0.031876038   -1.7357133 
  896000    6.7115053   -1.7634398  0.032098615   -1.7313411 
  897000    6.9021045   -1.7612609   0.03301018   -1.7282507 
  898000    6.6060309   -1.7485527  0.031594171   -1.7169585 
  899000     7.153522    -1.756221  0.034212616   -1.7220084 
  900000    5.5903618   -1.7663596  0.026736606    -1.739623 
  901000    6.8231753   -1.7571221  0.032632691   -1.7244894 
  902000    7.8852762   -1.7525569  0.037712322   -1.7148446 
  903000    7.2922686   -1.7653462  0.034876189     -1.73047 
  904000    5.5040696   -1.7695387  0.026323903   -1.7432148 
  905000    5.5835047   -1.7536834  0.026703811   -1.7269796 
  906000    5.8439545   -1.7534012  0.027949445   -1.7254517 
  907000    5.6987882   -1.7683823  0.027255169   -1.7411272 
  908000    5.9400918   -1.7661222  0.028409234    -1.737713 
  909000    5.4857921   -1.7641627  0.026236488   -1.7379262 
  910000    5.2666344   -1.7530305  0.025188339   -1.7278422 
  911000    6.2496953   -1.7654294  0.029889951   -1.7355394 
  912000    7.3676275   -1.7597465  0.035236602   -1.7245099 
  913000    6.9885206    -1.757389  0.033423476   -1.7239655 
  914000    6.5677402     -1.76375  0.031411041   -1.7323389 
  915000    5.8959283   -1.7613629  0.028198016   -1.7331649 
  916000    6.9541119   -1.7679266  0.033258912   -1.7346676 
  917000    5.5273633   -1.7652626  0.026435308   -1.7388273 
  918000    6.8350669   -1.7558091  0.032689564   -1.7231195 
  919000    6.9993787   -1.7630238  0.033475406   -1.7295484 
  920000    6.6182289   -1.7632122  0.031652509   -1.7315597 
  921000    6.6345336   -1.7642299  0.031730489   -1.7324994 
  922000    6.9431301    -1.764225   0.03320639   -1.7310186 
  923000    5.9459607   -1.7565152  0.028437302   -1.7280779 
  924000    7.0720802   -1.7713381   0.03382311    -1.737515 
  925000      6.56038    -1.756743   0.03137584   -1.7253672 
  926000    5.5803767   -1.7667424  0.026688851   -1.7400536 
  927000    6.8747879   -1.7593403  0.032879535   -1.7264607 
  928000    5.6989287   -1.7586808  0.027255841    -1.731425 
  929000    6.5725921   -1.7695289  0.031434246   -1.7380946 
  930000    7.0302322   -1.7602514  0.033622967   -1.7266285 
  931000    6.7128744   -1.7523796  0.032105163   -1.7202745 
  932000     10.29946   -1.7396512   0.04925846   -1.6903928 
  933000    9.1187413   -1.7543795  0.043611523    -1.710768 
  934000    9.9169813   -1.7525584  0.047429206   -1.7051292 
  935000    7.6861661   -1.7494799  0.036760053   -1.7127198 
  936000      10.1576    -1.735624  0.048579994    -1.687044 
  937000    10.280874   -1.7161526  0.049169567    -1.666983 
  938000    12.952385   -1.7390489  0.061946406   -1.6771025 
  939000     11.73313   -1.7276831  0.056115164   -1.6715679 
  940000    13.451635   -1.7284507  0.064334129   -1.6641166 
  941000    11.908446   -1.7367439  0.056953635   -1.6797903 
  942000    10.421174   -1.7299424  0.049840573   -1.6801018 
  943000    11.148684   -1.7216451   0.05331998   -1.6683251 
  944000    15.180914   -1.7313338  0.072604624   -1.6587291 
  945000    11.839755   -1.7343814  0.056625113   -1.6777563 
  946000     11.63978   -1.7452721  0.055668706   -1.6896034 
  947000    8.5287066   -1.7511804  0.040789609   -1.7103908 
  948000    8.1248619   -1.7483376   0.03885817   -1.7094794 
  949000    10.135125   -1.7420199  0.048472508   -1.6935474 
  950000    7.6913206   -1.7456445  0.036784705   -1.7088598 
  951000    8.7337708   -1.7447816  0.041770354   -1.7030112 
  952000     8.592611   -1.7519674  0.041095239   -1.7108721 
  953000    9.2535128   -1.7504159  0.044256085   -1.7061598 
  954000    10.350539   -1.7436291  0.049502749   -1.6941263 
  955000      8.83587   -1.7463776  0.042258656    -1.704119 
  956000    6.9848633   -1.7419034  0.033405984   -1.7084974 
  957000    12.053427   -1.7272498  0.057647027   -1.6696028 
  958000    12.067729   -1.7310189  0.057715426   -1.6733035 
  959000    10.730151   -1.7283696  0.051318291   -1.6770513 
  960000    14.071302   -1.7314988  0.067297768    -1.664201 
  961000    12.044094   -1.7220554  0.057602392    -1.664453 
  962000    12.235165   -1.7437174  0.058516212   -1.6852012 
  963000    11.276065   -1.7483216  0.053929197   -1.6943924 
  964000    7.3814409   -1.7337274  0.035302666   -1.6984247 
  965000    8.2252135   -1.7538976  0.039338115   -1.7145595 
  966000    10.797361   -1.7559366  0.051639734   -1.7042969 
  967000     8.671511   -1.7479222  0.041472588   -1.7064496 
  968000    9.9584199    -1.733336  0.047627392   -1.6857086 
  969000    8.6984664   -1.7513485  0.041601506    -1.709747 
  970000    8.7437392   -1.7407454  0.041818029   -1.6989273 
  971000    8.9958219   -1.7548736  0.043023646   -1.7118499 
  972000     7.291594   -1.7646169  0.034872962   -1.7297439 
  973000    5.8093182   -1.7560108  0.027783792    -1.728227 
  974000    5.5370591   -1.7649923  0.026481679   -1.7385107 
  975000    5.9844414   -1.7580503  0.028621341    -1.729429 
  976000    6.7567902   -1.7604279  0.032315196   -1.7281128 
  977000    6.3489724   -1.7622967  0.030364757    -1.731932 
  978000    8.1065555   -1.7605715  0.038770618   -1.7218009 
  979000    9.6522434   -1.7548324  0.046163064   -1.7086693 
  980000    6.9886658   -1.7515116   0.03342417   -1.7180874 
  981000    9.3510647   -1.7397772  0.044722639   -1.6950546 
  982000    9.3949546   -1.7493157  0.044932548   -1.7043832 
  983000    9.1616175   -1.7619613  0.043816584   -1.7181447 
  984000    10.038453   -1.7361257  0.048010158   -1.6881156 
  985000    14.034508   -1.7232204  0.067121795   -1.6560986 
  986000    12.097184   -1.7297666  0.057856297   -1.6719103 
  987000     10.26683   -1.7450259    0.0491024   -1.6959235 
  988000    11.935035   -1.7192679  0.057080802   -1.6621871 
  989000    15.878818   -1.7177767  0.075942439   -1.6418342 
  990000    12.722706   -1.7354131  0.060847937   -1.6745651 
  991000    12.491827   -1.7268194  0.059743728   -1.6670757 
  992000    10.830902   -1.7124764  0.051800148   -1.6606763 
  993000    14.580896   -1.6915916  0.069734963   -1.6218566 
  994000    15.425218   -1.6908698  0.073773038   -1.6170968 
  995000    14.362769   -1.7201354  0.068691744   -1.6514437 
  996000    11.355303    -1.736136  0.054308162   -1.6818278 
  997000    12.148895   -1.7329669  0.058103613   -1.6748633 
  998000    9.3664402   -1.7172539  0.044796174   -1.6724577 
  999000    11.496467   -1.7260541  0.054983296   -1.6710708 
 1000000    11.430256   -1.7411431   0.05466663   -1.6864764 
 1001000    8.6014094   -1.7520573  0.041137319     -1.71092 
 1002000    8.5967913   -1.7550301  0.041115232   -1.7139149 
 1003000    8.8764408   -1.7483293  0.042452691   -1.7058766 
 1004000    8.2326863   -1.7492648  0.039373854    -1.709891 
 1005000    10.816439   -1.7613693  0.051730977   -1.7096383 
 1006000     5.441756   -1.7608875   0.02602588   -1.7348616 
 1007000    6.1081853   -1.7485339  0.029213162   -1.7193208 
 1008000    6.6356837   -1.7674482  0.031735989   -1.7357123 
 1009000    5.9547474   -1.7640981  0.028479326   -1.7356188 
 1010000    5.8298306   -1.7617296  0.027881896   -1.7338477 
 1011000    5.4703403   -1.7557761  0.026162588   -1.7296135 
 1012000    6.9682495   -1.7585579  0.033326527   -1.7252314 
 1013000    8.5896969   -1.7467784  0.041081302   -1.7056971 
 1014000    6.7160994   -1.7478149  0.032120587   -1.7156943 
 1015000    6.6725044   -1.7456734  0.031912089   -1.7137613 
 1016000    10.641806   -1.7508676   0.05089577   -1.6999718 
 1017000    10.171637     -1.75911  0.048647129   -1.7104629 
 1018000     7.255263   -1.7745309  0.034699205   -1.7398316 
 1019000    4.5918873   -1.7726201  0.021961277   -1.7506589 
 1020000     3.763915   -1.7671061  0.018001395   -1.7491047 
 1021000    5.1512921   -1.7638582    0.0246367   -1.7392215 
 1022000    4.2017372   -1.7697239  0.020095335   -1.7496286 
 1023000    4.3595786   -1.7761511  0.020850231   -1.7553009 
 1024000    4.6125081   -1.7692064  0.022059898   -1.7471465 
 1025000    5.0047041   -1.7672727  0.023935625   -1.7433371 
 1026000    3.9790529   -1.7688873  0.019030319   -1.7498569 
 1027000    6.0170228   -1.7569117  0.028777166   -1.7281345 
 1028000    7.9453672   -1.7670422  0.037999715   -1.7290425 
 1029000    4.5769107   -1.7729174  0.021889649   -1.7510277 
 1030000    5.4433436    -1.766267  0.026033473   -1.7402335 
 1031000    5.3969824    -1.766839  0.025811745   -1.7410272 
 1032000      6.07352   -1.7640977  0.029047371   -1.7350503 
 1033000    6.7824915   -1.7661265  0.032438116   -1.7336883 
 1034000    6.2170399   -1.7574207  0.029733773   -1.7276869 
 1035000    5.4791648   -1.7608816  0.026204793   -1.7346768 
 1036000    5.5798958   -1.7584315  0.026686551   -1.7317449 
 1037000    11.259177   -1.7444284  0.053848427     -1.69058 
 1038000    10.926962   -1.7476071  0.052259567   -1.6953476 
 1039000    8.1810193   -1.7484676  0.039126751   -1.7093409 
 1040000    10.124931   -1.7490968  0.048423751   -1.7006731 
 1041000    9.2967742   -1.7429204  0.044462988   -1.6984574 
 1042000    7.4388274   -1.7395902  0.035577124   -1.7040131 
 1043000    7.8676109   -1.7416137  0.037627835   -1.7039859 
 1044000    10.260686   -1.7410205  0.049073016   -1.6919474 
 1045000    9.5927183   -1.7451826  0.045878378   -1.6993042 
 1046000    9.4229539   -1.7372344  0.045066458    -1.692168 
 1047000    9.8146295   -1.7503996  0.046939696   -1.7034599 
 1048000    10.765181   -1.7467451   0.05148583   -1.6952592 
 1049000     9.615317   -1.7515104  0.045986459    -1.705524 
 1050000    9.5899889   -1.7438083  0.045865324    -1.697943 
 1051000    10.964462   -1.7558675  0.052438914   -1.7034286 
 1052000    6.2463182   -1.7581344    0.0298738   -1.7282606 
 1053000    6.3092881    -1.765014  0.030174961    -1.734839 
 1054000    7.6017762   -1.7678023  0.036356448   -1.7314458 
 1055000    4.6895659   -1.7720651  0.022428437   -1.7496367 
 1056000    5.3797649   -1.7684445    0.0257294   -1.7427151 
 1057000    6.8723767   -1.7594011  0.032868003   -1.7265331 
 1058000    6.4717366    -1.756524  0.030951892   -1.7255721 
 1059000    7.3595564   -1.7643854  0.035198001   -1.7291874 
 1060000    6.0882301    -1.763429  0.029117724   -1.7343112 
 1061000     5.715318   -1.7710876  0.027334225   -1.7437534 
 1062000    6.6949949    -1.762034  0.032019652   -1.7300144 
 1063000     6.635503   -1.7574112  0.031735125   -1.7256761 
 1064000    8.1892312   -1.7668337  0.039166025   -1.7276677 
 1065000    5.2795238   -1.7638321  0.025249984   -1.7385821 
 1066000    4.9977303   -1.7579238  0.023902272   -1.7340216 
 1067000    8.1118187   -1.7661289   0.03879579   -1.7273331 
 1068000    6.4502526   -1.7608177  0.030849141   -1.7299686 
 1069000     5.608975   -1.7626837  0.026825626   -1.7358581 
 1070000    9.7838046   -1.7424447  0.046792272   -1.6956524 
 1071000    7.9479458    -1.756364  0.038012047    -1.718352 
 1072000    8.7211332   -1.7610863  0.041709913   -1.7193764 
 1073000     5.016655   -1.7576207  0.023992781    -1.733628 
 1074000    5.7823007   -1.7631372  0.027654578   -1.7354826 
 1075000     8.421099   -1.7687983  0.040274961   -1.7285234 
 1076000    6.4679654   -1.7610065  0.030933855   -1.7300726 
 1077000    6.9659979    -1.764484  0.033315758   -1.7311683 
 1078000    6.3780355   -1.7606776  0.030503754   -1.7301738 
 1079000    6.4620246   -1.7636802  0.030905443   -1.7327747 
 1080000    6.7835284   -1.7643679  0.032443075   -1.7319249 
 1081000    8.7815018   -1.7652166  0.041998633    -1.723218 
 1082000     6.321864   -1.7539097  0.030235107   -1.7236746 
 1083000    7.1809376   -1.7585157  0.034343734    -1.724172 
 1084000    6.2336259   -1.7652031  0.029813097     -1.73539 
 1085000    7.9065633   -1.7634691   0.03781413   -1.7256549 
 1086000    5.3908924   -1.7542564  0.025782619   -1.7284738 
 1087000    7.2252943   -1.7608371  0.034555876   -1.7262812 
 1088000    4.6543087   -1.7652718  0.022259815    -1.743012 
 1089000    3.9548047   -1.7784384  0.018914349    -1.759524 
 1090000    6.4715941   -1.7691983   0.03095121   -1.7382471 
 1091000    5.2756783   -1.7722757  0.025231593   -1.7470441 
 1092000    5.1316712   -1.7756358  0.024542861   -1.7510929 
 1093000    4.4196606   -1.7699687  0.021137581   -1.7488311 
 1094000    4.6052982   -1.7757874  0.022025416   -1.7537619 
 1095000    4.4614441    -1.762798  0.021337416   -1.7414605 
 1096000    5.0286911   -1.7675594  0.024050346    -1.743509 
 1097000    3.8875728   -1.7775759  0.018592804   -1.7589831 
 1098000    5.1288011   -1.7729175  0.024529134   -1.7483884 
 1099000    5.3179362   -1.7631684  0.025433697   -1.7377347 
 1100000    5.4899083   -1.7721576  0.026256175   -1.7459014 
 1101000    3.6090136   -1.7705791   0.01726056   -1.7533186 
 1102000    3.7417542   -1.7659229  0.017895409   -1.7480275 
 1103000    5.3497776   -1.7638798  0.025585982   -1.7382938 
 1104000    4.9760502   -1.7713275  0.023798584   -1.7475289 
 1105000    4.2547885   -1.7628116   0.02034906   -1.7424626 
 1106000     4.205324   -1.7739288  0.020112489   -1.7538163 
 1107000    6.1376792   -1.7689821   0.02935422   -1.7396279 
 1108000    4.9055677   -1.7702871  0.023461492   -1.7468256 
 1109000    4.8877424   -1.7701893  0.023376241   -1.7468131 
 1110000    4.3222044    -1.769089  0.020671485   -1.7484175 
 1111000    5.1960271   -1.7756549  0.024850651   -1.7508042 
 1112000    4.2653419   -1.7728294  0.020399532   -1.7524299 
 1113000    4.5991027     -1.76853  0.021995785   -1.7465342 
 1114000    3.3722066   -1.7729749  0.016128001   -1.7568469 
 1115000    5.1500366   -1.7709155  0.024630696   -1.7462848 
 1116000    4.6187328   -1.7700819  0.022089669   -1.7479922 
 1117000    5.3083189   -1.7724319  0.025387701   -1.7470442 
 1118000    5.0978578   -1.7677661  0.024381144   -1.7433849 
 1119000    6.1159794   -1.7674979  0.029250438   -1.7382474 
 1120000    4.5460279    -1.771828  0.021741949    -1.750086 
 1121000    4.5247656   -1.7686315  0.021640259   -1.7469912 
 1122000    6.7083828   -1.7753223  0.032083682   -1.7432386 
 1123000     4.759006   -1.7707554  0.022760543   -1.7479948 
 1124000    5.4234852   -1.7680682  0.025938498   -1.7421297 
 1125000    5.9784125   -1.7558397  0.028592507   -1.7272472 
 1126000    7.3373345   -1.7582726  0.035091722   -1.7231809 
 1127000    6.7704009   -1.7617747  0.032380291   -1.7293944 
 1128000    5.7009965   -1.7604991   0.02726573   -1.7332334 
 1129000    7.1806129   -1.7639951  0.034342182   -1.7296529 
 1130000     8.429006   -1.7600512  0.040312778   -1.7197384 
 1131000    6.8801773   -1.7686865  0.032905311   -1.7357812 
 1132000     6.520483   -1.7562286  0.031185028   -1.7250436 
 1133000    6.6804929   -1.7666337  0.031950295   -1.7346834 
 1134000    9.4639025   -1.7690062    0.0452623   -1.7237439 
 1135000    4.8963536   -1.7683971  0.023417425   -1.7449797 
 1136000     4.756581   -1.7667576  0.022748945   -1.7440086 
 1137000    4.8965914   -1.7741088  0.023418562   -1.7506902 
 1138000    5.6985104   -1.7600255   0.02725384   -1.7327716 
 1139000    5.5692502    -1.774664  0.026635637   -1.7480283 
 1140000    3.6373967   -1.7783332  0.017396306   -1.7609369 
 1141000    3.7111938   -1.7822979   0.01774925   -1.7645487 
 1142000    4.5622363   -1.7797928  0.021819467   -1.7579734 
 1143000    3.6917233    -1.773589  0.017656129   -1.7559328 
 1144000    3.7513608   -1.7783145  0.017941353   -1.7603732 
 1145000    2.6883302   -1.7867568  0.012857276   -1.7738995 
 1146000    3.1474937   -1.7835668  0.015053283   -1.7685136 
 1147000    2.4628672   -1.7853075  0.011778971   -1.7735285 
 1148000    2.4871023   -1.7817211  0.011894879   -1.7698262 
 1149000    2.6463304    -1.788216  0.012656407   -1.7755596 
 1150000    2.2967606   -1.7845999  0.010984546   -1.7736154 
 1151000    2.7684165   -1.7863644  0.013240299   -1.7731241 
 1152000    2.2455349   -1.7798352  0.010739552   -1.7690956 
 1153000    2.7905147   -1.7841551  0.013345986   -1.7708091 
 1154000    2.5111746   -1.7780379  0.012010008   -1.7660279 
 1155000    2.9707414   -1.7791427  0.014207943   -1.7649347 
 1156000    3.1257686   -1.7754748   0.01494938   -1.7605254 
 1157000    3.6056689   -1.7801779  0.017244564   -1.7629333 
 1158000    3.9412891   -1.7762461  0.018849709   -1.7573964 
 1159000    3.5853423   -1.7805538  0.017147349   -1.7634065 
 1160000    3.8812484   -1.7771835  0.018562557   -1.7586209 
 1161000    3.1715114   -1.7800978  0.015168151   -1.7649296 
 1162000     4.454756   -1.7762369  0.021305429   -1.7549315 
 1163000    2.5828826   -1.7770692   0.01235296   -1.7647163 
 1164000    3.3754372   -1.7719063  0.016143451   -1.7557629 
 1165000    4.8197942   -1.7748327   0.02305127   -1.7517815 
 1166000    5.1397673   -1.7649362  0.024581581   -1.7403546 
 1167000     5.114297   -1.7725038  0.024459766    -1.748044 
 1168000    5.1163566   -1.7730769  0.024469617   -1.7486073 
 1169000    3.7487028   -1.7644201  0.017928641   -1.7464915 
 1170000    5.4517825   -1.7734167  0.026073833   -1.7473429 
 1171000     3.682424   -1.7772177  0.017611654   -1.7596061 
 1172000    5.6836964   -1.7703762  0.027182991   -1.7431932 
 1173000    5.2605373   -1.7670157  0.025159179   -1.7418565 
 1174000    6.0401982    -1.770543  0.028888005    -1.741655 
 1175000    4.6043043    -1.771255  0.022020663   -1.7492343 
 1176000    5.3267893   -1.7655666  0.025476038   -1.7400906 
 1177000     5.106121   -1.7623855  0.024420664   -1.7379649 
 1178000    4.5785414   -1.7741076  0.021897448   -1.7522101 
 1179000     3.766125   -1.7785831  0.018011965   -1.7605711 
 1180000    3.8920846   -1.7804585  0.018614383   -1.7618441 
 1181000    3.6114321   -1.7780054  0.017272127   -1.7607333 
 1182000    4.2050195   -1.7734596  0.020111033   -1.7533486 
 1183000    3.7064339   -1.7831985  0.017726485    -1.765472 
 1184000    4.0295114    -1.780658  0.019271643   -1.7613864 
 1185000    3.2879367   -1.7824573   0.01572497   -1.7667323 
 1186000    3.3030555   -1.7734626  0.015797277   -1.7576654 
 1187000    3.5268048   -1.7731018  0.016867386   -1.7562344 
 1188000    3.9298012   -1.7794212  0.018794767   -1.7606264 
 1189000    3.1965017   -1.7815174   0.01528767   -1.7662297 
 1190000    3.5220714   -1.7795581  0.016844748   -1.7627134 
 1191000    3.5771639   -1.7749388  0.017108235   -1.7578306 
 1192000    3.6751982   -1.7735037  0.017577096   -1.7559266 
 1193000    3.1593582   -1.7823642  0.015110026   -1.7672541 
 1194000    4.6124337   -1.7848753  0.022059543   -1.7628157 
 1195000    3.0643284   -1.7866373  0.014655535   -1.7719818 
 1196000    2.3713809   -1.7846285  0.011341427   -1.7732871 
 1197000    2.4369139   -1.7854312  0.011654846   -1.7737764 
 1198000    3.0540127   -1.7881727  0.014606199   -1.7735665 
 1199000    1.9932756   -1.7858461 0.0095330906    -1.776313 
 1200000     2.189453    -1.788833  0.010471334   -1.7783617 
 1201000    2.5509135   -1.7827871  0.012200064    -1.770587 
 1202000    2.6394673   -1.7858085  0.012623583    -1.773185 
 1203000    2.1391993    -1.786084  0.010230989    -1.775853 
 1204000    2.7262457   -1.7846788  0.013038612   -1.7716402 
 1205000     2.940678   -1.7827144  0.014064161   -1.7686503 
 1206000    3.1206387    -1.785175  0.014924846   -1.7702501 
 1207000    2.1985345   -1.7860568  0.010514767   -1.7755421 
 1208000    2.4024046   -1.7857572  0.011489801   -1.7742674 
 1209000    2.2103962     -1.78491  0.010571497   -1.7743385 
 1210000    3.0832452   -1.7812428  0.014746007   -1.7664968 
 1211000    3.6602172   -1.7829261  0.017505448   -1.7654207 
 1212000    3.3878128   -1.7830977  0.016202639   -1.7668951 
 1213000    3.3852316   -1.7769698  0.016190294   -1.7607795 
 1214000    3.6093809   -1.7813987  0.017262317   -1.7641364 
 1215000     3.619901   -1.7781661   0.01731263   -1.7608535 
 1216000    4.3001643   -1.7808237  0.020566075   -1.7602577 
 1217000    4.1935627   -1.7811896  0.020056239   -1.7611334 
 1218000     2.949381   -1.7817897  0.014105784   -1.7676839 
 1219000    2.7462686    -1.781252  0.013134374   -1.7681176 
 1220000    2.8488717   -1.7857141  0.013625086    -1.772089 
 1221000    2.1398816     -1.78469  0.010234252   -1.7744557 
 1222000    2.2414047   -1.7863812  0.010719799   -1.7756614 
 1223000    2.3859655   -1.7849739  0.011411179   -1.7735627 
 1224000    2.2979332   -1.7875494  0.010990154   -1.7765593 
 1225000    2.2670885   -1.7860055  0.010842635   -1.7751629 
 1226000    2.4030321   -1.7896709  0.011492802   -1.7781781 
 1227000    1.6332686   -1.7871349 0.0078113119   -1.7793236 
 1228000    2.0864403   -1.7860651 0.0099786622   -1.7760864 
 1229000    1.9612761     -1.78811 0.0093800487   -1.7787299 
 1230000    1.3885411   -1.7878185 0.0066408719   -1.7811776 
 1231000    1.6273533    -1.786625  0.007783021    -1.778842 
 1232000    1.8974684   -1.7871773 0.0090748805   -1.7781024 
 1233000    2.4466556   -1.7888273  0.011701437   -1.7771259 
 1234000    1.5680096   -1.7884188 0.0074992027   -1.7809196 
 1235000    2.7156018   -1.7856644  0.012987706   -1.7726767 
 1236000    3.0601208   -1.7829226  0.014635411   -1.7682872 
 1237000    2.8571948   -1.7822521  0.013664892   -1.7685872 
 1238000     2.452263   -1.7827154  0.011728255   -1.7709871 
 1239000    2.3046261   -1.7848763  0.011022163   -1.7738542 
 1240000     2.680751   -1.7864313  0.012821028   -1.7736103 
 1241000    2.5894337    -1.786552  0.012384291   -1.7741677 
 1242000    2.8082333   -1.7822223  0.013430728   -1.7687915 
 1243000    2.1533198   -1.7860479  0.010298522   -1.7757494 
 1244000    2.1855545    -1.788485  0.010452689   -1.7780323 
 1245000    1.8505208   -1.7877194 0.0088503477    -1.778869 
 1246000    1.4538006   -1.7887831 0.0069529836   -1.7818301 
 1247000    2.3005432    -1.786388  0.011002636   -1.7753853 
 1248000    1.7346349   -1.7864877 0.0082961089   -1.7781916 
 1249000     1.953228   -1.7917277 0.0093415577   -1.7823861 
 1250000    1.8433613   -1.7914646 0.0088161067   -1.7826485 
 1251000    1.9608084   -1.7878379 0.0093778121   -1.7784601 
 1252000    2.0688869   -1.7912103 0.0098947108   -1.7813156 
 1253000     1.864725   -1.7887392 0.0089182809    -1.779821 
 1254000    2.3608356     -1.78594  0.011290992    -1.774649 
 1255000    1.9196517   -1.7899298  0.009180975   -1.7807488 
 1256000    2.0078537   -1.7865707 0.0096028119   -1.7769679 
 1257000    1.2914745   -1.7871699 0.0061766387   -1.7809933 
 1258000    2.0030914   -1.7845019 0.0095800355   -1.7749219 
 1259000    2.8144011   -1.7867453  0.013460226   -1.7732851 
 1260000    2.3337129   -1.7862807  0.011161274   -1.7751195 
 1261000    2.4717007   -1.7878203  0.011821218   -1.7759991 
 1262000    2.5720756   -1.7827433  0.012301274   -1.7704421 
 1263000     2.335548   -1.7816844  0.011170051   -1.7705143 
 1264000    4.6189551   -1.7801061  0.022090732   -1.7580154 
 1265000    3.5982072     -1.77932  0.017208877   -1.7621111 
 1266000    3.1802063   -1.7763712  0.015209735   -1.7611614 
 1267000    4.2213608   -1.7814987  0.020189187   -1.7613095 
 1268000    3.4320232   -1.7759352  0.016414081   -1.7595211 
 1269000    3.0392263   -1.7804131  0.014535481   -1.7658776 
 1270000    3.5856351   -1.7799767  0.017148749   -1.7628279 
 1271000    3.8117429   -1.7795397  0.018230138   -1.7613096 
 1272000    4.4276073    -1.777838  0.021175587   -1.7566624 
 1273000    3.3541591   -1.7779954  0.016041686   -1.7619537 
 1274000    4.6434115   -1.7758172  0.022207698   -1.7536095 
[...]
 4706000     2.538986   -1.7803491  0.012143019    -1.768206 
 4707000    2.2561859   -1.7865532  0.010790492   -1.7757627 
 4708000    2.7415331   -1.7840471  0.013111726   -1.7709353 
 4709000    2.4175668   -1.7804454  0.011562316   -1.7688831 
 4710000    2.3494266   -1.7838898  0.011236427   -1.7726534 
 4711000    2.8343219   -1.7854201    0.0135555   -1.7718646 
 4712000    2.7070181   -1.7865762  0.012946653   -1.7736296 
 4713000    2.5290847   -1.7851136  0.012095665   -1.7730179 
 4714000    3.0810412   -1.7835751  0.014735466   -1.7688396 
 4715000     3.058439   -1.7866759  0.014627368   -1.7720485 
 4716000    2.7569882   -1.7875977  0.013185642   -1.7744121 
 4717000    1.6628632   -1.7884467 0.0079528518   -1.7804939 
 4718000    1.4745706   -1.7880459  0.007052319   -1.7809936 
 4719000    1.6707366   -1.7892088 0.0079905071   -1.7812183 
 4720000    1.8818261   -1.7867538 0.0090000693   -1.7777537 
 4721000    2.0189992   -1.7887454 0.0096561166   -1.7790893 
 4722000    2.1601593   -1.7880858  0.010331233   -1.7777545 
 4723000    2.3973916   -1.7883711  0.011465826   -1.7769052 
 4724000    2.0156244   -1.7874715 0.0096399765   -1.7778315 
 4725000     1.950863    -1.789018  0.009330247   -1.7796878 
 4726000    2.1641549   -1.7853836  0.010350342   -1.7750332 
 4727000    2.3809057   -1.7859229   0.01138698   -1.7745359 
 4728000    2.9655509   -1.7819912  0.014183119   -1.7678081 
 4729000    2.4883606   -1.7893608  0.011900896     -1.77746 
 4730000     1.957023   -1.7896985 0.0093597076   -1.7803388 
 4731000    2.2137001   -1.7896368  0.010587298   -1.7790495 
 4732000    1.7261791   -1.7898792 0.0082556678   -1.7816236 
 4733000    2.4783931   -1.7892234  0.011853226   -1.7773702 
 4734000    2.2235654   -1.7880034   0.01063448   -1.7773689 
 4735000    1.9669897    -1.787674 0.0094073749   -1.7782666 
 4736000    3.0810072   -1.7832132  0.014735303   -1.7684779 
 4737000    2.1876474   -1.7875466  0.010462698   -1.7770839 
 4738000    2.4648687   -1.7832628  0.011788544   -1.7714743 
 4739000    1.9083827   -1.7849921 0.0091270795    -1.775865 
 4740000    2.0543857   -1.7813049 0.0098253574   -1.7714796 
 4741000    2.3147232   -1.7852108  0.011070454   -1.7741404 
 4742000    2.5409385   -1.7840623  0.012152357     -1.77191 
 4743000    2.7160842   -1.7819572  0.012990013   -1.7689671 
 4744000    2.2457457   -1.7828041  0.010740561   -1.7720635 
 4745000    2.2933739   -1.7812255  0.010968348   -1.7702572 
 4746000    3.0235715   -1.7819003   0.01446061   -1.7674397 
 4747000    3.0997987   -1.7859317  0.014825176   -1.7711065 
 4748000     2.840297   -1.7827512  0.013584077   -1.7691671 
 4749000    3.4868351   -1.7820153  0.016676226   -1.7653391 
 4750000    2.4863889   -1.7855123  0.011891467   -1.7736208 
 4751000    2.4801099   -1.7863625  0.011861437   -1.7745011 
 4752000    2.9400182   -1.7843998  0.014061006   -1.7703388 
 4753000    2.4232036   -1.7843105  0.011589275   -1.7727212 
 4754000    1.5052502   -1.7838278  0.007199048   -1.7766288 
 4755000    2.5181518    -1.785191  0.012043377   -1.7731477 
 4756000    2.3782664   -1.7877831  0.011374357   -1.7764088 
 4757000    3.3521695   -1.7844467  0.016032171   -1.7684145 
 4758000    2.9220921   -1.7866064  0.013975272   -1.7726311 
 4759000    2.5505739   -1.7831916  0.012198439   -1.7709931 
 4760000    3.1197892   -1.7842765  0.014920783   -1.7693557 
 4761000    2.8406451   -1.7857992  0.013585742   -1.7722134 
 4762000    2.5967349   -1.7853576   0.01241921   -1.7729384 
 4763000    2.1519548   -1.7809841  0.010291994   -1.7706921 
 4764000    2.5267217   -1.7843186  0.012084363   -1.7722343 
 4765000    1.6848937   -1.7848231 0.0080582154   -1.7767649 
 4766000    3.4009842   -1.7769101  0.016265634   -1.7606444 
 4767000    4.4671188   -1.7746991  0.021364556   -1.7533346 
 4768000    3.4623357   -1.7733651  0.016559055   -1.7568061 
 4769000    3.4967224   -1.7773383  0.016723513   -1.7606148 
 4770000    3.1982097    -1.779968  0.015295839   -1.7646721 
 4771000    3.1542279   -1.7803205   0.01508549    -1.765235 
 4772000    3.5197782   -1.7794256  0.016833781   -1.7625918 
 4773000    3.4113594   -1.7761478  0.016315254   -1.7598326 
 4774000     3.465283   -1.7805599  0.016573151   -1.7639868 
 4775000     3.886848   -1.7797376  0.018589338   -1.7611482 
 4776000    5.5392832   -1.7772585  0.026492316   -1.7507662 
 4777000    3.6207716   -1.7758981  0.017316794   -1.7585814 
 4778000     5.549611   -1.7601376   0.02654171   -1.7335959 
 4779000    4.4745818   -1.7712695  0.021400248   -1.7498692 
 4780000    5.8520923   -1.7645277  0.027988365   -1.7365394 
 4781000    5.3122028    -1.778978  0.025406276   -1.7535717 
 4782000    5.2599793   -1.7736177   0.02515651   -1.7484612 
 4783000    4.6562883    -1.771094  0.022269283   -1.7488247 
 4784000    5.6205252   -1.7708859  0.026880866    -1.744005 
 4785000    3.8261663   -1.7722481   0.01829912    -1.753949 
 4786000    3.7188666    -1.773417  0.017785946   -1.7556311 
 4787000    5.6292553   -1.7739991  0.026922619   -1.7470765 
 4788000    3.6109072   -1.7774172  0.017269616   -1.7601476 
 4789000    4.5985534   -1.7802785  0.021993158   -1.7582854 
 4790000     3.118926   -1.7852286  0.014916655    -1.770312 
 4791000    3.5426278   -1.7820543  0.016943061   -1.7651113 
 4792000    4.3530384    -1.775714  0.020818952   -1.7548951 
 4793000    2.2784699    -1.777247  0.010897068   -1.7663499 
 4794000    3.1006102   -1.7811537  0.014829057   -1.7663247 
 4795000    3.8921827   -1.7819931  0.018614852   -1.7633782 
 4796000    3.4264473   -1.7831219  0.016387414   -1.7667345 
 4797000    4.2475539   -1.7741079  0.020314459   -1.7537935 
 4798000     2.677609    -1.779046  0.012806001     -1.76624 
 4799000    3.8112808   -1.7765936  0.018227928   -1.7583657 
 4800000    4.0204754   -1.7783568  0.019228428   -1.7591284 
 4801000    4.0847454   -1.7828049  0.019535807   -1.7632691 
 4802000    3.3030729   -1.7787891   0.01579736   -1.7629917 
 4803000    2.9911153   -1.7770241  0.014305384   -1.7627187 
 4804000     4.254547   -1.7803092  0.020347905   -1.7599613 
 4805000    3.6098096   -1.7775681  0.017264367   -1.7603038 
 4806000    2.7554777   -1.7786577  0.013178418   -1.7654793 
 4807000    3.4090963   -1.7808785   0.01630443   -1.7645741 
 4808000    3.2971481   -1.7778362  0.015769024   -1.7620672 
 4809000    3.2737771   -1.7743162   0.01565725    -1.758659 
 4810000    4.0824246   -1.7787514  0.019524707   -1.7592267 
 4811000    3.7550715   -1.7739357    0.0179591   -1.7559766 
 4812000    4.2809216   -1.7731154  0.020474044   -1.7526414 
 4813000    5.9449082   -1.7698739  0.028432269   -1.7414416 
 4814000    5.4520702   -1.7639333  0.026075209   -1.7378581 
 4815000    4.4602243   -1.7773029  0.021331582   -1.7559713 
 4816000    4.0377368   -1.7708821  0.019310982   -1.7515712 
 4817000    5.4344716   -1.7627955  0.025991042   -1.7368045 
 4818000    5.5813058   -1.7728312  0.026693295   -1.7461379 
 4819000     5.076339   -1.7650855  0.024278227   -1.7408073 
 4820000    4.0020417   -1.7753043  0.019140266   -1.7561641 
 4821000    4.9185682   -1.7723846  0.023523669   -1.7488609 
 4822000    5.8794669   -1.7690535  0.028119287   -1.7409342 
 4823000    4.2083033   -1.7703693  0.020126738   -1.7502426 
 4824000    4.7017133   -1.7682106  0.022486533   -1.7457241 
 4825000    5.2110644    -1.769355  0.024922569   -1.7444324 
 4826000      3.85339    -1.774866  0.018429321   -1.7564367 
 4827000    6.2683028    -1.767907  0.029978944   -1.7379281 
 4828000    5.8464918   -1.7724782   0.02796158   -1.7445167 
 4829000    6.4225454   -1.7764925  0.030716628   -1.7457759 
 4830000    3.7053872    -1.777084  0.017721479   -1.7593625 
 4831000    3.5822708   -1.7795226  0.017132659   -1.7623899 
 4832000    3.4774431   -1.7788186  0.016631307   -1.7621873 
 4833000    3.3875092   -1.7762943  0.016201187   -1.7600931 
 4834000    2.8927906   -1.7747239  0.013835134   -1.7608888 
 4835000    3.3602887   -1.7769589  0.016071002   -1.7608879 
 4836000    3.8292008   -1.7843218  0.018313633   -1.7660082 
 4837000     2.999213   -1.7860145  0.014344112   -1.7716703 
 4838000    3.0119677    -1.783824  0.014405113   -1.7694189 
 4839000     2.226649   -1.7848717  0.010649228   -1.7742225 
 4840000    2.3752737   -1.7855063  0.011360044   -1.7741462 
 4841000    3.0435836   -1.7886687   0.01455632   -1.7741124 
 4842000    2.2113308     -1.78341  0.010575967   -1.7728341 
 4843000    2.4369059   -1.7818886  0.011654808   -1.7702338 
 4844000    2.4293762    -1.783289  0.011618796   -1.7716702 
 4845000    2.2617427   -1.7826927  0.010817068   -1.7718757 
 4846000    2.1450332   -1.7836117   0.01025889   -1.7733528 
 4847000    3.4507647   -1.7881229  0.016503715   -1.7716191 
 4848000    2.3937351   -1.7838358  0.011448338   -1.7723874 
 4849000    2.5339495   -1.7806824  0.012118931   -1.7685635 
 4850000    3.0231822   -1.7822169  0.014458748   -1.7677582 
 4851000    3.7391602   -1.7816398  0.017883002   -1.7637568 
 4852000    3.1171061   -1.7764309  0.014907951    -1.761523 
 4853000     4.343454   -1.7819241  0.020773113    -1.761151 
 4854000    2.6569344   -1.7783921  0.012707122    -1.765685 
 4855000    3.0234983   -1.7804404   0.01446026   -1.7659802 
 4856000    4.3827666   -1.7795178  0.020961131   -1.7585567 
 4857000    3.6218346   -1.7754505  0.017321878   -1.7581286 
 4858000    4.0104956   -1.7744883  0.019180698   -1.7553076 
 4859000    3.2786645   -1.7786105  0.015680624   -1.7629298 
 4860000    4.1621046   -1.7784939  0.019905787   -1.7585881 
 4861000    3.6211089   -1.7822682  0.017318407   -1.7649498 
 4862000    2.6589872   -1.7776712  0.012716939   -1.7649542 
 4863000    3.8837333   -1.7702279  0.018574441   -1.7516534 
 4864000    5.1338157   -1.7769085  0.024553117   -1.7523553 
 4865000     3.464401   -1.7849572  0.016568932   -1.7683883 
 4866000    2.6025271    -1.783414  0.012446912   -1.7709671 
 4867000    2.4934327   -1.7882399  0.011925154   -1.7763148 
 4868000    2.5760047   -1.7808173  0.012320065   -1.7684972 
 4869000    3.1938802   -1.7859125  0.015275132   -1.7706374 
 4870000    2.3276239   -1.7850049  0.011132153   -1.7738727 
 4871000    2.3600823   -1.7832334  0.011287389    -1.771946 
 4872000    1.9373831   -1.7826294 0.0092657774   -1.7733636 
 4873000    2.8883627   -1.7841971  0.013813957   -1.7703831 
 4874000    3.1363721   -1.7836345  0.015000093   -1.7686344 
 4875000    2.1494368   -1.7875221  0.010279951   -1.7772421 
 4876000    2.9456274   -1.7853314  0.014087832   -1.7712436 
 4877000    2.9032548   -1.7858486   0.01388518   -1.7719634 
 4878000    2.8686366   -1.7828218  0.013719614   -1.7691022 
 4879000    3.2742565   -1.7786727  0.015659542   -1.7630132 
 4880000    3.1660335   -1.7739513  0.015141952   -1.7588093 
 4881000    3.0939972   -1.7790257   0.01479743   -1.7642283 
 4882000    3.7308381   -1.7804097  0.017843201   -1.7625665 
 4883000    3.1529271   -1.7805469  0.015079269   -1.7654677 
 4884000    3.5999827   -1.7785236  0.017217369   -1.7613062 
 4885000    2.9422049   -1.7726069  0.014071464   -1.7585355 
 4886000    3.9609038   -1.7770328  0.018943519   -1.7580893 
 4887000    4.3274307    -1.779429   0.02069648   -1.7587326 
 4888000     3.694793   -1.7750875  0.017670811   -1.7574167 
 4889000    4.1261569   -1.7746483  0.019733863   -1.7549145 
 4890000    3.1909921   -1.7770445   0.01526132   -1.7617832 
 4891000    3.2730411   -1.7754652   0.01565373   -1.7598114 
 4892000    4.2515518   -1.7839563  0.020333579   -1.7636228 
 4893000    1.8275745   -1.7848316  0.008740604    -1.776091 
 4894000    3.0724954   -1.7841948  0.014694595   -1.7695002 
 4895000    2.3918133   -1.7839456  0.011439147   -1.7725065 
 4896000    2.6641241   -1.7843497  0.012741507   -1.7716082 
 4897000    3.2816686   -1.7763259  0.015694991   -1.7606309 
 4898000    3.2151046   -1.7793848  0.015376641   -1.7640081 
 4899000    3.9181009   -1.7813986  0.018738809   -1.7626598 
 4900000    3.2408204   -1.7822547   0.01549963   -1.7667551 
 4901000    2.8333616   -1.7772498  0.013550907   -1.7636989 
 4902000    3.7863953   -1.7777317   0.01810891   -1.7596227 
 4903000    3.5566247   -1.7738355  0.017010004   -1.7568255 
 4904000    4.0030524    -1.781478    0.0191451   -1.7623329 
 4905000    3.6554454   -1.7797771  0.017482626   -1.7622945 
 4906000    3.4595758   -1.7791417  0.016545855   -1.7625959 
 4907000    3.5285979   -1.7781466  0.016875962   -1.7612707 
 4908000    3.8049084    -1.780222  0.018197451   -1.7620246 
 4909000    3.8313383   -1.7788247  0.018323856   -1.7605008 
 4910000      3.55951   -1.7867535  0.017023803   -1.7697297 
 4911000    2.5344647   -1.7868065  0.012121395   -1.7746851 
 4912000     2.338936   -1.7842693  0.011186255   -1.7730831 
 4913000    2.6355421   -1.7851936  0.012604811   -1.7725888 
 4914000    2.5591467    -1.782096   0.01223944   -1.7698566 
 4915000    1.5644015   -1.7817412 0.0074819461   -1.7742592 
 4916000     2.783617   -1.7887868  0.013312997   -1.7754738 
 4917000    2.0206259   -1.7907714 0.0096638965   -1.7811075 
 4918000    1.8489042   -1.7880907 0.0088426162   -1.7792481 
 4919000    2.0537358   -1.7875766  0.009822249   -1.7777543 
 4920000    1.9951499   -1.7893475 0.0095420543   -1.7798055 
 4921000    1.4139813     -1.78806  0.006762543   -1.7812974 
 4922000    1.5702519   -1.7893568 0.0075099266   -1.7818468 
 4923000     1.900639   -1.7844649 0.0090900442   -1.7753749 
 4924000    1.8568472   -1.7883736 0.0088806044    -1.779493 
 4925000    1.9388885    -1.791312 0.0092729771    -1.782039 
 4926000    2.1597813   -1.7873136  0.010329425   -1.7769842 
 4927000    1.7111495   -1.7890175 0.0081837872   -1.7808338 
 4928000    2.5994864   -1.7872144   0.01243237   -1.7747821 
 4929000    2.0735052   -1.7886143 0.0099167985   -1.7786975 
 4930000    1.9921536   -1.7871394 0.0095277245   -1.7776117 
 4931000    1.6799737   -1.7923575  0.008034685   -1.7843228 
 4932000    1.7421225   -1.7880487 0.0083319192   -1.7797168 
 4933000    1.7974156   -1.7866974 0.0085963655   -1.7781011 
 4934000    2.2447838   -1.7898099   0.01073596    -1.779074 
 4935000    2.0163575   -1.7909635 0.0096434824     -1.78132 
 4936000    1.8057259   -1.7927766 0.0086361106   -1.7841405 
 4937000    1.3995225   -1.7912646 0.0066933917   -1.7845712 
 4938000    2.0215969   -1.7857081 0.0096685408   -1.7760395 
 4939000    2.1066258   -1.7851464  0.010075202   -1.7750712 
 4940000    2.0173596   -1.7872968 0.0096482752   -1.7776486 
 4941000    2.0478383   -1.7914783 0.0097940434   -1.7816842 
 4942000    2.1665043   -1.7913455  0.010361578    -1.780984 
 4943000     2.233978   -1.7875642   0.01068428   -1.7768799 
 4944000    2.6397845   -1.7901096    0.0126251   -1.7774845 
 4945000    1.8118966   -1.7921687 0.0086656224   -1.7835031 
 4946000    1.9327274   -1.7920312 0.0092435112   -1.7827877 
 4947000    1.7279535   -1.7927094 0.0082641542   -1.7844453 
 4948000    2.1397831   -1.7901234  0.010233781   -1.7798896 
 4949000    2.5481153   -1.7864856  0.012186681   -1.7742989 
 4950000    2.3095932   -1.7878455  0.011045919   -1.7767996 
 4951000    2.3256798   -1.7899077  0.011122855   -1.7787849 
 4952000    2.0110215   -1.7915121 0.0096179624   -1.7818942 
 4953000    1.8864234   -1.7909809 0.0090220566   -1.7819589 
 4954000    1.9680878   -1.7897272 0.0094126265   -1.7803146 
 4955000    2.4000775   -1.7887572  0.011478671   -1.7772785 
 4956000    2.1051834   -1.7898072  0.010068304   -1.7797389 
 4957000    2.0824689   -1.7920327 0.0099596685    -1.782073 
 4958000     1.785041   -1.7887648 0.0085371822   -1.7802276 
 4959000    2.4359409   -1.7903981  0.011650193   -1.7787479 
 4960000    1.8706041   -1.7861341 0.0089463985   -1.7771877 
 4961000    1.9225714   -1.7902646 0.0091949386   -1.7810697 
 4962000    2.4000386   -1.7895593  0.011478486   -1.7780808 
 4963000    1.7242924   -1.7908707 0.0082466447    -1.782624 
 4964000    1.6340195   -1.7922823 0.0078149033   -1.7844674 
 4965000    1.9626259   -1.7880053 0.0093865043   -1.7786188 
 4966000    1.9418631   -1.7869925 0.0092872039   -1.7777053 
 4967000    2.4113541   -1.7907248  0.011532603   -1.7791922 
 4968000    2.0230214    -1.788548 0.0096753535   -1.7788727 
 4969000    2.4367072   -1.7909898  0.011653857    -1.779336 
 4970000     1.890814   -1.7879232  0.009043055   -1.7788802 
 4971000    2.0827445   -1.7893896 0.0099609867   -1.7794286 
 4972000    2.3435958   -1.7892517  0.011208541   -1.7780431 
 4973000    2.1249456   -1.7909053  0.010162819   -1.7807425 
 4974000    1.7193007   -1.7884628 0.0082227711     -1.78024 
 4975000    2.3706211   -1.7857814  0.011337793   -1.7744436 
 4976000    3.3829133    -1.777933  0.016179207   -1.7617538 
 4977000    4.2544205   -1.7690424  0.020347299   -1.7486951 
 4978000    3.6876409   -1.7780696  0.017636605    -1.760433 
 4979000    3.6984979   -1.7812608   0.01768853   -1.7635722 
 4980000    2.8058901   -1.7815745  0.013419521    -1.768155 
 4981000    3.4729515   -1.7801938  0.016609826    -1.763584 
 4982000    3.3101005    -1.778931   0.01583097      -1.7631 
 4983000    3.4988726   -1.7814956  0.016733797   -1.7647618 
 4984000    3.2488279   -1.7786253  0.015537927   -1.7630873 
 4985000    4.5038258   -1.7818636  0.021540112   -1.7603235 
 4986000     4.296703   -1.7761161  0.020549521   -1.7555666 
 4987000    3.2590312    -1.775399  0.015586725   -1.7598123 
 4988000    3.0643367   -1.7770657  0.014655574   -1.7624101 
 4989000    3.4896736   -1.7777513  0.016689801   -1.7610615 
 4990000    4.2871617   -1.7799328  0.020503888   -1.7594289 
 4991000    3.2576625   -1.7733846  0.015580179   -1.7578044 
 4992000    5.6361846   -1.7741699  0.026955759   -1.7472141 
 4993000    4.9323916    -1.769612  0.023589781   -1.7460222 
 4994000    4.8224955   -1.7721543  0.023064189   -1.7490901 
 4995000    3.8557865   -1.7738168  0.018440782    -1.755376 
 4996000    4.5730746   -1.7714982  0.021871303   -1.7496269 
 4997000    4.6038793   -1.7696068   0.02201863   -1.7475881 
 4998000    4.6808879   -1.7725879  0.022386933    -1.750201 
 4999000    5.7456806   -1.7726808  0.027479438   -1.7452013 
 5000000    4.6791469   -1.7679728  0.022378607   -1.7455942 
Loop time of 1276.16 on 1 procs for 5000000 steps with 38 atoms

Performance: 338.516 ns/day, 0.071 hours/ns, 3918.010 timesteps/s
97.6% CPU use with 1 MPI tasks x no OpenMP threads

MPI task timing breakdown:
Section |  min time  |  avg time  |  max time  |%varavg| %total
---------------------------------------------------------------
Pair    | 1222.6     | 1222.6     | 1222.6     |   0.0 | 95.80
Neigh   | 2.0027e-05 | 2.0027e-05 | 2.0027e-05 |   0.0 |  0.00
Comm    | 1.1236     | 1.1236     | 1.1236     |   0.0 |  0.09
Output  | 0.17348    | 0.17348    | 0.17348    |   0.0 |  0.01
Modify  | 17.117     | 17.117     | 17.117     |   0.0 |  1.34
Other   |            | 35.19      |            |       |  2.76

Nlocal:        38.0000 ave          38 max          38 min
Histogram: 1 0 0 0 0 0 0 0 0 0
Nghost:        0.00000 ave           0 max           0 min
Histogram: 1 0 0 0 0 0 0 0 0 0
Neighs:        0.00000 ave           0 max           0 min
Histogram: 1 0 0 0 0 0 0 0 0 0

Total # of neighbors = 0
Ave neighs/atom = 0.0000000
Neighbor list builds = 86
Dangerous builds = 0


---------------------------------------------------------------------
      Device Time Info (average): 
---------------------------------------------------------------------
Data Transfer:   442.0000 s.
Data Cast/Pack:  2.1263 s.
Neighbor copy:   0.0093 s.
Neighbor build:  0.0067 s.
Force calc:      257.3569 s.
Neighbor (CPU):  0.0021 s.
Device Overhead: 235.7440 s.
Average split:   1.0000.
Threads / atom:  4.
Max Mem / Proc:  0.06 MB.
CPU Driver_Time: 248.3130 s.
CPU Idle_Time:   1037.4144 s.
---------------------------------------------------------------------

Total wall time: 0:21:16
