LAMMPS (29 Oct 2020)
Processor partition = 9
Reading data file ...
  orthogonal box = (-50.000000 -50.000000 -50.000000) to (50.000000 50.000000 50.000000)
  1 by 1 by 1 MPI processor grid
  reading atoms ...
  38 atoms
  read_data CPU = 0.010 seconds

--------------------------------------------------------------------------
- Using acceleration for lj/cut:
-  with 1 proc(s) per device.
--------------------------------------------------------------------------
Device 0: Tesla P100-PCIE-16GB, 56 CUs, 15/16 GB, 1.3 GHZ (Mixed Precision)
--------------------------------------------------------------------------

Initializing Device and compiling on process 0...Done.
Initializing Device 0 on core 0...Done.

Setting up Verlet run ...
  Unit style    : metal
  Current step  : 0
  Time step     : 0.001
Per MPI rank memory allocation (min/avg/max) = 3.436 | 3.436 | 3.436 Mbytes
Step Temp PotEng KinEng TotEng 
       0    26.620115   -1.7950808   0.12731404   -1.6677667 
    1000    29.788932   -1.5255187    0.1424693   -1.3830494 
    2000    26.453045   -1.6011869   0.12651501   -1.4746719 
    3000    43.789189   -1.5572397   0.20942729   -1.3478124 
    4000    33.337969   -1.5291713   0.15944302   -1.3697283 
    5000    35.753759    -1.564187   0.17099684   -1.3931901 
    6000    33.144936   -1.5809542   0.15851981   -1.4224344 
    7000    28.163018   -1.5428429   0.13469317   -1.4081497 
    8000    34.025891    -1.565908   0.16273309   -1.4031749 
    9000    30.855745    -1.637887   0.14757147   -1.4903155 
   10000    22.606675   -1.5801643   0.10811926   -1.4720451 
   11000    30.008291   -1.5686233   0.14351842   -1.4251049 
   12000    33.714745   -1.5461735     0.161245   -1.3849286 
   13000    33.257771   -1.5413979   0.15905946   -1.3823384 
   14000    31.125081   -1.5672016    0.1488596    -1.418342 
   15000    31.252795   -1.5171245   0.14947041   -1.3676541 
   16000    33.003943   -1.4957376   0.15784549   -1.3378921 
   17000     31.80904   -1.4498329   0.15213072   -1.2977022 
   18000    37.016799   -1.4113928   0.17703748   -1.2343554 
   19000    36.371161   -1.4148556   0.17394964    -1.240906 
   20000    50.942956   -1.4783873   0.24364108   -1.2347462 
   21000    42.074971   -1.4523877   0.20122882   -1.2511589 
   22000    40.841193   -1.4982137   0.19532813   -1.3028856 
   23000     40.25507   -1.4514677   0.19252492   -1.2589427 
   24000    31.279266   -1.3213509   0.14959701   -1.1717539 
   25000    50.082105   -1.3377139   0.23952394   -1.0981899 
   26000     42.62259   -1.3803787   0.20384788   -1.1765309 
   27000     38.72309   -1.3387451   0.18519803    -1.153547 
   28000    40.746736   -1.4338671   0.19487638   -1.2389907 
   29000    38.695592   -1.4171934   0.18506652   -1.2321269 
   30000     41.27134   -1.4363943   0.19738536    -1.239009 
   31000    45.750305   -1.4397691   0.21880657   -1.2209625 
   32000    46.770414   -1.3942276   0.22368537   -1.1705423 
   33000    44.925346   -1.5162427    0.2148611   -1.3013816 
   34000    50.352794   -1.4263594   0.24081855   -1.1855409 
   35000    32.459384   -1.4765716   0.15524107   -1.3213306 
   36000    39.135833   -1.4312586   0.18717203   -1.2440866 
   37000    37.135655   -1.4515873   0.17760593   -1.2739813 
   38000    42.535723    -1.417515   0.20343243   -1.2140826 
   39000    43.033933   -1.4146971   0.20581518   -1.2088819 
   40000    33.568581   -1.4002718   0.16054595   -1.2397259 
   41000    45.095619   -1.4223054   0.21567545     -1.20663 
   42000    42.888847   -1.4230067   0.20512129   -1.2178854 
   43000    40.221794   -1.4587113   0.19236577   -1.2663456 
   44000    36.966808    -1.466505   0.17679839   -1.2897066 
   45000    41.488666   -1.4853389   0.19842474   -1.2869141 
   46000    48.358543   -1.4571888    0.2312808    -1.225908 
   47000    45.333418   -1.4796281   0.21681276   -1.2628154 
   48000    32.191535   -1.4924598   0.15396005   -1.3384997 
   49000    38.159272   -1.4206913    0.1825015   -1.2381898 
   50000    42.592038   -1.4689531   0.20370176   -1.2652513 
   51000    49.780818   -1.3840435     0.238083   -1.1459605 
   52000    39.043355    -1.401147   0.18672974   -1.2144173 
   53000    43.238159   -1.4555112   0.20679192   -1.2487192 
   54000    43.467448   -1.4419496   0.20788852   -1.2340611 
   55000    34.145431   -1.4499953    0.1633048   -1.2866905 
   56000    42.430557   -1.3791312   0.20292946   -1.1762018 
   57000    44.151415   -1.4347781   0.21115968   -1.2236184 
   58000    49.919175   -1.3740904   0.23874471   -1.1353457 
   59000    39.969709   -1.3748034   0.19116014   -1.1836433 
   60000    41.874307   -1.4600595   0.20026912   -1.2597904 
   61000    43.194633   -1.4845509   0.20658375   -1.2779671 
   62000    40.239033   -1.4824111   0.19244822   -1.2899628 
   63000    29.474914   -1.4431378   0.14096747   -1.3021703 
   64000    31.847179   -1.4618465   0.15231313   -1.3095333 
   65000    55.000239   -1.4762432   0.26304554   -1.2131977 
   66000    36.261904   -1.4681447    0.1734271   -1.2947176 
   67000    45.515206   -1.3727546   0.21768218   -1.1550725 
   68000     36.64036   -1.4597978   0.17523712   -1.2845607 
   69000     37.58908   -1.3828857   0.17977449   -1.2031112 
   70000    50.922198   -1.4534858   0.24354179    -1.209944 
   71000    44.371237   -1.3423051     0.212211   -1.1300941 
   72000    43.813283   -1.3991876   0.20954252   -1.1896451 
   73000    43.507271   -1.4075287   0.20807898   -1.1994497 
   74000    39.800619   -1.3288703   0.19035145   -1.1385188 
   75000    33.624675   -1.3623413   0.16081422   -1.2015271 
   76000    41.110948    -1.478078   0.19661826   -1.2814598 
   77000    32.867703   -1.4892642   0.15719391   -1.3320703 
   78000    33.054503   -1.5002667   0.15808731   -1.3421794 
   79000    34.226198   -1.5233652   0.16369109   -1.3596741 
   80000    46.968016   -1.5195894   0.22463043    -1.294959 
   81000    32.248309   -1.4731976   0.15423158   -1.3189661 
   82000     42.95849   -1.5261374   0.20545436   -1.3206831 
   83000    33.681165   -1.4651833    0.1610844   -1.3040989 
   84000    33.449972     -1.44594   0.15997868   -1.2859613 
   85000    34.038633   -1.4826681   0.16279403    -1.319874 
   86000    37.895354   -1.4536061   0.18123928   -1.2723668 
   87000    37.248981   -1.4343307   0.17814792   -1.2561827 
   88000    33.496162   -1.4947958   0.16019959   -1.3345962 
   89000     36.47097    -1.527913   0.17442699    -1.353486 
   90000    28.012085   -1.5150524   0.13397131   -1.3810811 
   91000    26.209545   -1.5747131   0.12535043   -1.4493627 
   92000    27.701634   -1.5697622   0.13248654   -1.4372757 
   93000    24.358668   -1.6052173   0.11649838   -1.4887189 
   94000    30.275198   -1.5773341   0.14479493   -1.4325392 
   95000    27.381997   -1.5669604   0.13095783   -1.4360025 
   96000    28.581627     -1.62704   0.13669521   -1.4903448 
   97000    30.237746   -1.5925899   0.14461581    -1.447974 
   98000    21.707975   -1.6051522   0.10382111   -1.5013311 
   99000     25.81769    -1.613212   0.12347634   -1.4897357 
  100000    28.903847    -1.587101   0.13823627   -1.4488648 
  101000    30.927125   -1.5645035   0.14791285   -1.4165907 
  102000    33.259068   -1.5615905   0.15906566   -1.4025248 
  103000    26.346038   -1.5890434   0.12600323   -1.4630402 
  104000    22.719487   -1.5799028   0.10865879    -1.471244 
  105000    24.052122    -1.611704   0.11503229   -1.4966717 
  106000    22.354319   -1.6006238   0.10691233   -1.4937115 
  107000    19.869042   -1.6088547  0.095026183   -1.5138285 
  108000    18.743224   -1.5965116  0.089641817   -1.5068697 
  109000    23.583606   -1.5919868   0.11279155   -1.4791953 
  110000    25.672493   -1.5772426   0.12278191   -1.4544607 
  111000    29.068963   -1.5609568   0.13902596   -1.4219308 
  112000    24.683624   -1.5786657   0.11805253   -1.4606131 
  113000    25.330463   -1.5697994   0.12114612   -1.4486533 
  114000    28.415872   -1.5241891   0.13590247   -1.3882866 
  115000    24.117404   -1.6159824   0.11534451   -1.5006379 
  116000    28.312051   -1.5926234   0.13540593   -1.4572175 
  117000    22.710925   -1.5362461   0.10861785   -1.4276282 
  118000    28.356778   -1.5956853   0.13561985   -1.4600654 
  119000    27.904335   -1.6061005   0.13345598   -1.4726445 
  120000    25.721595   -1.5748466   0.12301675   -1.4518298 
  121000    28.919057   -1.5885221   0.13830901   -1.4502131 
  122000    27.426703   -1.5719371   0.13117165   -1.4407654 
  123000    30.954936   -1.6118694   0.14804586   -1.4638235 
  124000    30.396409   -1.5904339   0.14537464   -1.4450593 
  125000    24.799902   -1.6316422   0.11860864   -1.5130336 
  126000     25.76986   -1.5997374   0.12324759   -1.4764898 
  127000    32.284531   -1.4995076   0.15440482   -1.3451028 
  128000    37.473849   -1.5456513   0.17922338   -1.3664279 
  129000    37.259077   -1.5000981   0.17819621   -1.3219019 
  130000    32.052771   -1.5020233   0.15329639   -1.3487269 
  131000    28.304568   -1.5073877   0.13537015   -1.3720176 
  132000    28.934547   -1.5642084    0.1383831   -1.4258253 
  133000    35.170831   -1.5360212   0.16820891   -1.3678123 
  134000    32.083444   -1.5225151   0.15344309   -1.3690721 
  135000     34.70468   -1.5623696   0.16597948   -1.3963901 
  136000    27.898655   -1.5719088   0.13342882   -1.4384799 
  137000    22.231638   -1.4736024    0.1063256   -1.3672768 
  138000    32.930951   -1.5329461    0.1574964   -1.3754497 
  139000    33.533909   -1.4929648   0.16038012   -1.3325846 
  140000    29.768828   -1.5358037   0.14237315   -1.3934306 
  141000    32.939613   -1.5275465   0.15753783   -1.3700087 
  142000    40.768388   -1.5500535   0.19497993   -1.3550736 
  143000     37.27407   -1.5299585   0.17826791   -1.3516906 
  144000    38.075964   -1.5723137   0.18210307   -1.3902106 
  145000    31.229877   -1.5473859    0.1493608   -1.3980251 
  146000    31.285847   -1.5851644   0.14962848    -1.435536 
  147000    32.372601   -1.5370133   0.15482602   -1.3821873 
  148000    33.581654   -1.5662929   0.16060847   -1.4056844 
  149000    28.475198    -1.616231   0.13618621   -1.4800448 
  150000    31.728991   -1.5360415   0.15174787   -1.3842936 
  151000    28.065324   -1.5198076   0.13422593   -1.3855817 
  152000    32.090248   -1.5196375   0.15347563   -1.3661618 
  153000    22.365967   -1.5836969   0.10696804   -1.4767288 
  154000    24.336967   -1.5425141   0.11639459   -1.4261195 
  155000    28.927163   -1.5364682   0.13834778   -1.3981204 
  156000    37.857573    -1.528028   0.18105859   -1.3469695 
  157000    43.320541   -1.4811286   0.20718592   -1.2739427 
  158000    44.412138   -1.4425024   0.21240662   -1.2300958 
  159000     30.18808   -1.4118954   0.14437828   -1.2675171 
  160000    44.336082   -1.4383873   0.21204287   -1.2263445 
  161000    36.114418   -1.4525154   0.17272173   -1.2797937 
  162000    35.496944    -1.437781   0.16976858   -1.2680125 
  163000    38.613975   -1.4236123   0.18467618   -1.2389361 
  164000    39.799217   -1.5064041   0.19034474   -1.3160594 
  165000    41.346384   -1.4233244   0.19774427   -1.2255801 
  166000    38.512672   -1.4077124   0.18419168   -1.2235207 
  167000    39.683493   -1.4425599   0.18979128   -1.2527686 
  168000    45.531509   -1.3922106   0.21776015   -1.1744505 
  169000    29.520717   -1.4645589   0.14118653   -1.3233724 
  170000     42.44834    -1.476951   0.20301451   -1.2739365 
  171000    33.630405   -1.5316757   0.16084163   -1.3708341 
  172000    38.502246    -1.537312   0.18414182   -1.3531702 
  173000    28.700045   -1.5533845   0.13726156   -1.4161229 
  174000    29.397816   -1.5700469   0.14059874   -1.4294482 
  175000    26.367418   -1.5762027   0.12610548   -1.4500972 
  176000      30.5198   -1.6070868   0.14596477    -1.461122 
  177000    35.338828    -1.580602   0.16901237   -1.4115897 
  178000    28.198471   -1.5497754   0.13486272   -1.4149127 
  179000    24.798046   -1.5549409   0.11859976   -1.4363411 
  180000    26.915414   -1.5536272   0.12872634   -1.4249009 
  181000    25.618065   -1.5681097   0.12252161   -1.4455881 
  182000    33.477718   -1.5627828   0.16011138   -1.4026715 
  183000    21.798951    -1.550651   0.10425622   -1.4463948 
  184000    23.657589   -1.5565457   0.11314538   -1.4434003 
  185000    34.170337   -1.5775166   0.16342392   -1.4140927 
  186000    29.388306   -1.5447834   0.14055326   -1.4042301 
  187000    29.772048   -1.5843841   0.14238855   -1.4419955 
  188000     23.87097   -1.5903342   0.11416591   -1.4761683 
  189000    30.725259   -1.5514164    0.1469474    -1.404469 
  190000    30.363404   -1.6043781   0.14521679   -1.4591613 
  191000    25.670878   -1.5802409   0.12277419   -1.4574667 
  192000    26.527481   -1.5686692   0.12687101   -1.4417982 
  193000    34.722694   -1.5757016   0.16606564    -1.409636 
  194000    33.533266   -1.5074155   0.16037705   -1.3470384 
  195000    32.111961   -1.5232005   0.15357948    -1.369621 
  196000    34.000886   -1.5313485    0.1626135    -1.368735 
  197000    32.999499   -1.5423279   0.15782424   -1.3845037 
  198000    27.495037   -1.5459709   0.13149846   -1.4144724 
  199000    37.328553   -1.4988726   0.17852849   -1.3203441 
  200000     23.44154   -1.5234304    0.1121121   -1.4113183 
  201000    33.399973   -1.5517485   0.15973956   -1.3920089 
  202000    28.072501   -1.5152108   0.13426026   -1.3809505 
  203000     25.96686   -1.4721025   0.12418976   -1.3479127 
  204000    30.564089   -1.5419718   0.14617659   -1.3957952 
  205000    32.976392   -1.5015229   0.15771373   -1.3438091 
  206000    29.574575   -1.5661482   0.14144411   -1.4247041 
  207000    37.620307   -1.4939145   0.17992383   -1.3139907 
  208000    34.030039   -1.5431486   0.16275293   -1.3803957 
  209000    29.425566   -1.5521427   0.14073146   -1.4114112 
  210000    41.664778   -1.5095231   0.19926702    -1.310256 
  211000    28.920333   -1.5452335   0.13831512   -1.4069184 
  212000    30.993058    -1.489136   0.14822819   -1.3409078 
  213000    35.439218   -1.4643195    0.1694925    -1.294827 
  214000    33.353004   -1.4507362   0.15951493   -1.2912212 
  215000    44.614744   -1.4376485   0.21337561   -1.2242729 
  216000    46.073701   -1.5192425   0.22035325   -1.2988893 
  217000    30.595514   -1.5536064   0.14632688   -1.4072795 
  218000    33.589506   -1.5538527   0.16064602   -1.3932067 
  219000     25.20954   -1.5248996   0.12056779   -1.4043318 
  220000    31.250443   -1.4928347   0.14945916   -1.3433756 
  221000    29.438136   -1.5602373   0.14079158   -1.4194457 
  222000    26.891538   -1.5597972   0.12861215    -1.431185 
  223000    31.081283   -1.5502775   0.14865013   -1.4016274 
  224000    36.448758   -1.5369231   0.17432075   -1.3626023 
  225000    25.925082   -1.6103698   0.12398996   -1.4863799 
  226000    31.247875   -1.5586006   0.14944688   -1.4091537 
  227000    28.884398   -1.5692903   0.13814325   -1.4311471 
  228000    22.387663   -1.5892504    0.1070718   -1.4821786 
  229000    27.024787   -1.5882441   0.12924943   -1.4589947 
  230000    33.123734   -1.5882321   0.15841841   -1.4298137 
  231000    30.509618   -1.5437352   0.14591607   -1.3978192 
  232000    26.734403   -1.5907851   0.12786064   -1.4629244 
  233000    25.886887   -1.5592218   0.12380728   -1.4354145 
  234000    37.228319   -1.5159286   0.17804911   -1.3378795 
  235000    37.980956   -1.5280565   0.18164868   -1.3464078 
  236000     33.10052   -1.5736755   0.15830739   -1.4153681 
  237000    27.957911   -1.5287542   0.13371221    -1.395042 
  238000    32.423803   -1.5167797    0.1550709   -1.3617088 
  239000    27.175698   -1.5715539   0.12997118   -1.4415827 
  240000    25.701149   -1.5811909   0.12291897   -1.4582719 
  241000    34.989604   -1.5785192   0.16734217   -1.4111771 
  242000    35.449228   -1.5347532   0.16954038   -1.3652128 
  243000    30.797982   -1.5822864   0.14729521   -1.4349912 
  244000    28.257057   -1.6133424   0.13514292   -1.4781994 
  245000    30.051731   -1.5736448   0.14372617   -1.4299186 
  246000    24.491317    -1.605547   0.11713279   -1.4884142 
  247000    26.493577   -1.5875931   0.12670885   -1.4608843 
  248000    25.533704   -1.6046592   0.12211814   -1.4825411 
  249000    24.038114   -1.5883816   0.11496529   -1.4734163 
  250000    26.078564   -1.6098956     0.124724   -1.4851716 
  251000    25.838972   -1.5995165   0.12357812   -1.4759384 
  252000    27.138369   -1.5553585   0.12979265   -1.4255658 
  253000    29.629809   -1.5994238   0.14170828   -1.4577155 
  254000    22.537755   -1.6230802   0.10778964   -1.5152905 
  255000    22.443986   -1.5976137   0.10734118   -1.4902726 
  256000    25.794415   -1.5778531   0.12336502   -1.4544881 
  257000    20.206196    -1.610143  0.096638665   -1.5135043 
  258000    28.405592   -1.6150769    0.1358533   -1.4792236 
  259000    21.310978   -1.5917331   0.10192242   -1.4898107 
  260000    25.057886   -1.5903106   0.11984248   -1.4704681 
  261000    24.346943   -1.6227104   0.11644231   -1.5062681 
  262000     22.66432   -1.5633739   0.10839495    -1.454979 
  263000    23.558937   -1.6265455   0.11267357    -1.513872 
  264000    23.671698    -1.595835   0.11321286   -1.4826221 
  265000    21.782187   -1.5970766   0.10417604   -1.4929006 
  266000    29.150617   -1.6057476   0.13941648   -1.4663311 
  267000    24.008697   -1.6103927    0.1148246   -1.4955681 
  268000    21.463898   -1.5429117   0.10265378   -1.4402579 
  269000    22.750343   -1.6059714   0.10880637    -1.497165 
  270000    23.672387   -1.5674829   0.11321616   -1.4542667 
  271000    22.511873   -1.5816381   0.10766585   -1.4739722 
  272000    24.488227   -1.5945134   0.11711801   -1.4773954 
  273000    26.653975   -1.5847011   0.12747598   -1.4572251 
  274000     26.98516   -1.6333538   0.12905991   -1.5042938 
  275000     26.36812   -1.5877942   0.12610884   -1.4616853 
  276000    20.078731    -1.554703  0.096029048    -1.458674 
  277000    32.091524   -1.6113139   0.15348174   -1.4578322 
  278000    28.368036   -1.5883824   0.13567369   -1.4527087 
  279000    29.093787   -1.5641671   0.13914468   -1.4250224 
  280000    26.410347   -1.5705592    0.1263108   -1.4442484 
  281000    30.242385   -1.5708919     0.144638   -1.4262539 
  282000    20.964847   -1.6216175   0.10026701   -1.5213505 
  283000    27.001228   -1.5742904   0.12913676   -1.4451536 
  284000    38.413033   -1.5584356   0.18371515   -1.3747204 
  285000    28.146246   -1.5985289   0.13461295    -1.463916 
  286000    24.198682   -1.6043415   0.11573323   -1.4886082 
  287000    27.180578   -1.5844188   0.12999452   -1.4544242 
  288000    27.635662   -1.5630924   0.13217102   -1.4309214 
  289000    30.452324   -1.5614531   0.14564206   -1.4158111 
  290000    28.376118   -1.5946311   0.13571234   -1.4589187 
  291000    26.363777   -1.5826342   0.12608807   -1.4565461 
  292000    23.279404   -1.5861858   0.11133667   -1.4748492 
  293000    32.381843   -1.5646151   0.15487023   -1.4097449 
  294000    23.898622   -1.5884831   0.11429816   -1.4741849 
  295000    21.895558   -1.5647973   0.10471825   -1.4600791 
  296000    28.944466   -1.6139375   0.13843054    -1.475507 
  297000    25.697794   -1.5531356   0.12290292   -1.4302327 
  298000    24.907272   -1.6199935   0.11912215   -1.5008713 
  299000    23.775557   -1.5749578   0.11370958   -1.4612482 
  300000    25.543527   -1.5651097   0.12216512   -1.4429446 
  301000    28.408439   -1.6117835   0.13586692   -1.4759165 
  302000    32.556717   -1.5770983   0.15570658   -1.4213917 
  303000    29.398071   -1.5900916   0.14059996   -1.4494916 
  304000    26.017553   -1.6147481   0.12443221   -1.4903159 
  305000    31.308565   -1.6025233   0.14973714   -1.4527862 
  306000    30.098075   -1.6006612   0.14394782   -1.4567134 
  307000    24.207672   -1.5777568   0.11577623   -1.4619806 
  308000    28.791269   -1.5711105   0.13769785   -1.4334126 
  309000    21.385098     -1.59131   0.10227691   -1.4890331 
  310000    30.463575    -1.590355   0.14569587   -1.4446592 
  311000    28.174802   -1.6022299   0.13474952   -1.4674803 
  312000    24.279009   -1.5621619   0.11611741   -1.4460445 
  313000    30.944597   -1.6066036   0.14799641   -1.4586072 
  314000    31.517765   -1.5665177   0.15073766     -1.41578 
  315000    25.048596   -1.5844108   0.11979805   -1.4646127 
  316000    29.156778   -1.5651918   0.13944595   -1.4257459 
  317000     30.88053   -1.5806731      0.14769   -1.4329831 
  318000    27.552184   -1.5955196   0.13177177   -1.4637478 
  319000    28.135285   -1.6070798   0.13456053   -1.4725193 
  320000    25.860707    -1.564916   0.12368207   -1.4412339 
  321000     20.56056   -1.5685362  0.098333457   -1.4702027 
  322000    24.691192   -1.5910336   0.11808872   -1.4729449 
  323000    26.970228   -1.5848412    0.1289885   -1.4558527 
  324000    26.574605   -1.5872545   0.12709638   -1.4601582 
  325000    26.204881   -1.5833951   0.12532813   -1.4580669 
  326000    28.123699   -1.5520188   0.13450511   -1.4175137 
  327000    31.329393   -1.5899961   0.14983675   -1.4401594 
  328000    36.128282   -1.5878417   0.17278804   -1.4150537 
  329000     25.24957   -1.6067532   0.12075923    -1.485994 
  330000    25.145022   -1.5469166   0.12025922   -1.4266574 
  331000    24.058842   -1.6187542   0.11506443   -1.5036898 
  332000    33.971036   -1.4822543   0.16247074   -1.3197836 
  333000    29.995089   -1.4959503   0.14345527   -1.3524951 
  334000    26.430336   -1.5750859    0.1264064   -1.4486795 
  335000    30.231899   -1.5947392   0.14458785   -1.4501513 
  336000    30.099125   -1.5638233   0.14395284   -1.4198704 
  337000    28.829076    -1.620424   0.13787867   -1.4825453 
  338000     18.15345   -1.6247957  0.086821149   -1.5379745 
  339000    18.601524   -1.6323691   0.08896412    -1.543405 
  340000    28.582435    -1.616449   0.13669908   -1.4797499 
  341000    22.430619   -1.5867494   0.10727725   -1.4794722 
  342000     22.58506   -1.6393574   0.10801588   -1.5313415 
  343000    21.765538   -1.6405087   0.10409641   -1.5364122 
  344000    24.983888   -1.5886758   0.11948858   -1.4691872 
  345000    18.531914   -1.6035343    0.0886312   -1.5149031 
  346000    24.409446   -1.6141233   0.11674123    -1.497382 
  347000    21.217548   -1.6160646   0.10147558   -1.5145891 
  348000    20.028029   -1.6118807  0.095786561   -1.5160942 
  349000    21.004554   -1.5982661   0.10045691   -1.4978092 
  350000    21.273462   -1.6048708     0.101743   -1.5031278 
  351000    20.700262   -1.6200653    0.0990016   -1.5210637 
  352000    25.750277   -1.5681227   0.12315393   -1.4449688 
  353000    27.099101   -1.6129069   0.12960485    -1.483302 
  354000    28.184496   -1.5896531   0.13479588   -1.4548572 
  355000    26.639716   -1.5894978   0.12740778   -1.4620901 
  356000    25.859247   -1.5801568   0.12367509   -1.4564817 
  357000    23.445583   -1.6108984   0.11213144    -1.498767 
  358000    30.637559   -1.6040881   0.14652797   -1.4575602 
  359000    28.191643    -1.620094   0.13483007   -1.4852639 
  360000    24.367072   -1.5690903   0.11653858   -1.4525517 
  361000    26.832233   -1.5741825   0.12832852    -1.445854 
  362000    24.727597   -1.5812584   0.11826283   -1.4629956 
  363000    24.746788   -1.5899216   0.11835462    -1.471567 
  364000    25.293988   -1.6004431   0.12097167   -1.4794714 
  365000    25.292486   -1.5598706   0.12096448   -1.4389061 
  366000    29.907704   -1.6093984   0.14303734   -1.4663611 
  367000    30.909377   -1.5817577   0.14782797   -1.4339297 
  368000    21.500017   -1.5874085   0.10282653    -1.484582 
  369000    25.467909   -1.5834705   0.12180347    -1.461667 
  370000    25.988705   -1.6092209   0.12429424   -1.4849266 
  371000    23.474074   -1.6233574    0.1122677   -1.5110897 
  372000    21.961122   -1.6194331   0.10503182   -1.5144013 
  373000    23.427591   -1.5970142   0.11204539   -1.4849688 
  374000    27.561459   -1.5870958   0.13181613   -1.4552797 
  375000    21.209882   -1.6209431   0.10143892   -1.5195041 
  376000    22.131892   -1.6169816   0.10584855   -1.5111331 
  377000    23.845996   -1.6134129   0.11404646   -1.4993664 
  378000     24.48348   -1.5932486   0.11709531   -1.4761533 
  379000     27.00468    -1.625594   0.12915327   -1.4964408 
  380000    22.199215   -1.6179687   0.10617053   -1.5117982 
  381000    24.467642   -1.6145282   0.11701957   -1.4975086 
  382000    21.071031   -1.6415933   0.10077485   -1.5408184 
  383000    24.940167   -1.6147652   0.11927947   -1.4954857 
  384000    19.937094   -1.6049039  0.095351654   -1.5095523 
  385000    28.795987   -1.6427268   0.13772042   -1.5050064 
  386000    23.952333   -1.5943844   0.11455503   -1.4798294 
  387000    28.323401    -1.625749   0.13546022   -1.4902888 
  388000    25.495999   -1.6392999   0.12193781    -1.517362 
  389000    18.701497   -1.6260266  0.089442253   -1.5365844 
  390000     23.26557   -1.6168111    0.1112705   -1.5055406 
  391000    29.211231   -1.6004005   0.13970637   -1.4606941 
  392000    30.527386   -1.6354668   0.14600105   -1.4894657 
  393000    22.414362   -1.6341476    0.1071995   -1.5269481 
  394000    25.815128   -1.6138916   0.12346408   -1.4904275 
  395000    18.273022   -1.6327754  0.087393018   -1.5453824 
  396000    18.760763    -1.610154  0.089725701   -1.5204283 
  397000    21.983883   -1.6098256   0.10514068   -1.5046849 
  398000    23.732548   -1.6074502   0.11350388   -1.4939463 
  399000    21.838609   -1.5841769   0.10444589    -1.479731 
  400000    26.822384   -1.6066475   0.12828141    -1.478366 
  401000    25.575216   -1.5719539   0.12231668   -1.4496372 
  402000    25.330736   -1.6090698   0.12114742   -1.4879224 
  403000    36.042966   -1.6055184      0.17238   -1.4331384 
  404000    27.180432   -1.6015402   0.12999382   -1.4715464 
  405000    27.936864   -1.5854812   0.13361155   -1.4518697 
  406000    25.067835   -1.6310116   0.11989006   -1.5111215 
  407000    23.996967   -1.6068808    0.1147685   -1.4921123 
  408000    31.834061   -1.6005639   0.15225039   -1.4483135 
  409000    32.371868   -1.5951166   0.15482252   -1.4402941 
  410000    27.996975   -1.5833406   0.13389904   -1.4494415 
  411000    25.322999    -1.587071   0.12111042   -1.4659606 
  412000    23.658967   -1.5915125   0.11315198   -1.4783605 
  413000     24.71919   -1.6040664   0.11822263   -1.4858438 
  414000    24.756368   -1.5609555   0.11840043    -1.442555 
  415000    38.461259   -1.5024828   0.18394579    -1.318537 
  416000    33.136135   -1.5228044   0.15847772   -1.3643266 
  417000    24.459666   -1.5688035   0.11698142   -1.4518221 
  418000    31.543092   -1.5290335   0.15085879   -1.3781747 
  419000    36.259498   -1.5557443   0.17341559   -1.3823287 
  420000    34.622523   -1.5277164   0.16558656   -1.3621298 
  421000    33.603368   -1.5399971   0.16071232   -1.3792848 
  422000    26.394867   -1.5358499   0.12623676   -1.4096131 
  423000    30.698164   -1.5506062   0.14681782   -1.4037884 
  424000    28.148686   -1.5216775   0.13462462   -1.3870529 
  425000    36.320556   -1.5374303   0.17370761   -1.3637227 
  426000    32.072787   -1.5880669   0.15339212   -1.4346748 
  427000    23.545667   -1.6286417    0.1126101   -1.5160316 
  428000    23.163751   -1.5869967   0.11078355   -1.4762132 
  429000    26.493745   -1.5838148   0.12670966   -1.4571052 
  430000    31.226139   -1.5919834   0.14934293   -1.4426405 
  431000    20.545048   -1.6075805  0.098259266   -1.5093213 
  432000    17.373478   -1.6224727  0.083090836   -1.5393818 
  433000    26.524674   -1.6401623   0.12685758   -1.5133047 
  434000    25.085002   -1.6250768   0.11997217   -1.5051047 
  435000    21.521731   -1.6336002   0.10293038   -1.5306698 
  436000    19.126805   -1.6000856  0.091476344   -1.5086093 
  437000     24.01458   -1.5890255   0.11485274   -1.4741727 
  438000    22.169824   -1.6059346   0.10602996   -1.4999047 
  439000    35.034907   -1.5447813   0.16755884   -1.3772224 
  440000    29.735614   -1.5489542    0.1422143   -1.4067399 
  441000    27.660967   -1.5069505   0.13229204   -1.3746585 
  442000    28.598003   -1.5725544   0.13677353   -1.4357809 
  443000    26.578309   -1.5029899   0.12711409   -1.3758758 
  444000    34.471766   -1.5293613   0.16486554   -1.3644958 
  445000    33.192154   -1.5462502   0.15874564   -1.3875045 
  446000    32.380737   -1.5454768   0.15486493   -1.3906118 
  447000    37.377181   -1.5389592   0.17876105   -1.3601981 
  448000    31.198914    -1.537418   0.14921272   -1.3882053 
  449000    28.214403   -1.5149331   0.13493892   -1.3799942 
  450000    32.057298   -1.5806374   0.15331804   -1.4273193 
  451000    22.335348   -1.5560329    0.1068216   -1.4492113 
  452000     29.15443   -1.5842342   0.13943472   -1.4447995 
  453000    26.023598   -1.5802933   0.12446112   -1.4558321 
  454000    23.818302   -1.5732279   0.11391401   -1.4593139 
  455000     27.09446   -1.5593138   0.12958265   -1.4297312 
  456000    29.141033   -1.5929951   0.13937064   -1.4536245 
  457000    22.317718   -1.5945958   0.10673728   -1.4878585 
  458000    25.464739   -1.6142141   0.12178831   -1.4924258 
  459000    14.106063   -1.5825425  0.067464014   -1.5150785 
  460000    17.173258   -1.5437022  0.082133259   -1.4615689 
  461000    29.210958   -1.5809927   0.13970507   -1.4412877 
  462000     25.64333   -1.5785928   0.12264244   -1.4559503 
  463000    23.325732   -1.6316728   0.11155824   -1.5201146 
  464000    27.958838   -1.5743896   0.13371665   -1.4406729 
  465000    27.243704   -1.6036224   0.13029643   -1.4733259 
  466000    23.774907   -1.5707212   0.11370647   -1.4570147 
  467000    25.919762   -1.6046411   0.12396451   -1.4806766 
  468000    27.699309   -1.5733842   0.13247542   -1.4409088 
  469000    27.860014   -1.5712153   0.13324401   -1.4379713 
  470000    31.818799   -1.5797323    0.1521774   -1.4275549 
  471000    29.145312   -1.5852142   0.13939111   -1.4458231 
  472000     25.27734    -1.594027   0.12089205    -1.473135 
  473000    27.061891   -1.5715748   0.12942689   -1.4421479 
  474000    24.745713   -1.5995627   0.11834948   -1.4812132 
  475000    24.709388   -1.5886938   0.11817574   -1.4705181 
  476000    24.588741   -1.6073269   0.11759874   -1.4897282 
  477000    27.053804   -1.5829496   0.12938821   -1.4535614 
  478000    24.707585   -1.5758305   0.11816712   -1.4576633 
  479000    29.262648   -1.5739924   0.13995228   -1.4340401 
  480000    25.488422   -1.6114584   0.12190157   -1.4895569 
  481000    23.283581   -1.5583397   0.11135664    -1.446983 
  482000    22.391193   -1.5675033   0.10708869   -1.4604146 
  483000    28.152994   -1.6007957   0.13464522   -1.4661505 
  484000     28.08861   -1.5891738    0.1343373   -1.4548365 
  485000    26.374167   -1.6008309   0.12613776   -1.4746931 
  486000    31.379272   -1.6119758    0.1500753   -1.4619004 
  487000    29.235667   -1.5923076   0.13982324   -1.4524843 
  488000    35.261682   -1.6136596   0.16864342   -1.4450162 
  489000    26.601794   -1.5626005   0.12722641   -1.4353741 
  490000    29.281758   -1.5915527   0.14004368    -1.451509 
  491000    33.792024   -1.5917631   0.16161459   -1.4301485 
  492000    29.002208   -1.5842524   0.13870669   -1.4455457 
  493000    24.201335   -1.5599549   0.11574592    -1.444209 
  494000    31.323506   -1.6094242    0.1498086   -1.4596156 
  495000    27.135198   -1.5874933   0.12977749   -1.4577159 
  496000    24.297663   -1.5503843   0.11620662   -1.4341777 
  497000    33.313947   -1.5962899   0.15932813   -1.4369618 
  498000    29.997279   -1.5776874   0.14346575   -1.4342217 
  499000    23.120644   -1.5914276   0.11057738   -1.4808502 
  500000    28.219218   -1.5778201   0.13496195   -1.4428581 
  501000    24.513539   -1.5757239   0.11723907   -1.4584848 
  502000    30.529919    -1.608118   0.14601317   -1.4621048 
  503000    23.647265   -1.5888449   0.11309601   -1.4757489 
  504000    36.552726   -1.5021475   0.17481799   -1.3273295 
  505000    34.590271   -1.5416214   0.16543231   -1.3761891 
  506000    36.926058   -1.5517115    0.1766035    -1.375108 
  507000    36.275867   -1.5518049   0.17349388    -1.378311 
  508000    24.002935   -1.5369701   0.11479705   -1.4221731 
  509000    37.150398   -1.5588999   0.17767644   -1.3812234 
  510000    34.082724   -1.5453694    0.1630049   -1.3823645 
  511000    29.805852   -1.5170553   0.14255023    -1.374505 
  512000    32.645708   -1.5123101   0.15613219   -1.3561779 
  513000    43.554673   -1.4692658   0.20830568   -1.2609601 
  514000     29.46465   -1.5148126   0.14091838   -1.3738942 
  515000      35.3255      -1.5568   0.16894863   -1.3878514 
  516000    18.327367   -1.4936637  0.087652932   -1.4060107 
  517000    38.295448   -1.5726982   0.18315278   -1.3895455 
  518000    34.178158   -1.5461315   0.16346133   -1.3826701 
  519000    31.877736   -1.5261997   0.15245927   -1.3737404 
  520000    33.816125   -1.5631638   0.16172986    -1.401434 
  521000    26.765867   -1.5081828   0.12801111   -1.3801717 
  522000    34.337799   -1.5401117   0.16422483   -1.3758869 
  523000    35.996896   -1.5539552   0.17215967   -1.3817955 
  524000     47.25249   -1.5202619   0.22599096   -1.2942709 
  525000    23.295392   -1.5603155   0.11141313   -1.4489024 
  526000    29.120108   -1.6122332   0.13927057   -1.4729626 
  527000    21.559683   -1.6218172   0.10311188   -1.5187053 
  528000    23.662264    -1.609116   0.11316774   -1.4959483 
  529000    33.627159   -1.6268646    0.1608261   -1.4660385 
  530000    28.407885   -1.6076428   0.13586427   -1.4717785 
  531000    20.015489    -1.609113  0.095726585   -1.5133864 
  532000    33.553584   -1.5972073   0.16047422    -1.436733 
  533000    23.686859     -1.58611   0.11328537   -1.4728247 
  534000    25.473002   -1.5992669   0.12182783   -1.4774391 
  535000    29.122195   -1.6141596   0.13928055    -1.474879 
  536000    28.178342   -1.6011189   0.13476645   -1.4663525 
  537000    29.574608   -1.6040073   0.14144427   -1.4625631 
  538000    26.735016   -1.5795829   0.12786356   -1.4517193 
  539000    21.943571   -1.6125007   0.10494788   -1.5075528 
  540000    27.472084   -1.6118626   0.13138869   -1.4804739 
  541000    28.544095   -1.5954217   0.13651571   -1.4589059 
  542000    24.182038   -1.5680797   0.11565363    -1.452426 
  543000     33.21128   -1.5622498   0.15883711   -1.4034127 
  544000    27.015202    -1.541164   0.12920359   -1.4119604 
  545000    27.908361   -1.5285907   0.13347524   -1.3951154 
  546000    45.162815   -1.5204056   0.21599682   -1.3044087 
  547000    30.253803   -1.5621912   0.14469261   -1.4174986 
  548000    29.328712   -1.5725107   0.14026824   -1.4322424 
  549000    39.432432   -1.5357129   0.18859055   -1.3471224 
  550000    30.995148   -1.5570739   0.14823818   -1.4088358 
  551000    32.641574   -1.4690995   0.15611242    -1.312987 
  552000    38.474696   -1.5734279   0.18401006   -1.3894178 
  553000     32.98635   -1.4933816   0.15776136   -1.3356203 
  554000    30.683144    -1.549557   0.14674598    -1.402811 
  555000    30.586399   -1.6018038   0.14628329   -1.4555205 
  556000    25.813158   -1.6157935   0.12345466   -1.4923388 
  557000    18.728035    -1.623558  0.089569174   -1.5339888 
  558000    22.441672   -1.5957295   0.10733011   -1.4883994 
  559000    25.210855    -1.602468   0.12057408   -1.4818939 
  560000    23.531305   -1.5431864   0.11254141    -1.430645 
  561000    24.785513   -1.5839957   0.11853982   -1.4654559 
  562000    23.261494   -1.5781577   0.11125101   -1.4669067 
  563000    23.828125   -1.5823876   0.11396099   -1.4684266 
  564000    28.253773   -1.5818529   0.13512721   -1.4467257 
  565000    42.590077   -1.5340376   0.20369238   -1.3303452 
  566000    28.694985   -1.5632571   0.13723736   -1.4260198 
  567000    35.898351   -1.5208534   0.17168836    -1.349165 
  568000     29.75109   -1.5573148   0.14228832   -1.4150264 
  569000    24.447251   -1.5840808   0.11692204   -1.4671588 
  570000    27.282511   -1.5928413   0.13048203   -1.4623593 
  571000    23.815131   -1.6229465   0.11389885   -1.5090476 
  572000    17.076805   -1.6155713  0.081671959   -1.5338994 
  573000     20.72961    -1.631171  0.099141959    -1.532029 
  574000    21.259312   -1.6145689   0.10167532   -1.5128936 
  575000    19.648742   -1.6190978   0.09397257   -1.5251252 
  576000    22.741325   -1.6338617   0.10876324   -1.5250984 
  577000    17.776671   -1.6194458  0.085019159   -1.5344266 
  578000    21.975034   -1.6318511   0.10509835   -1.5267528 
  579000    28.886788   -1.5414623   0.13815469   -1.4033076 
  580000    25.340762    -1.570284   0.12119537   -1.4490887 
  581000    27.200336   -1.5871022   0.13008902   -1.4570132 
  582000    21.533509   -1.5649577   0.10298671    -1.461971 
  583000    38.685467   -1.5137119    0.1850181   -1.3286938 
  584000    33.431655   -1.5046492   0.15989108   -1.3447581 
  585000    33.947456   -1.5276522   0.16235797   -1.3652943 
  586000    34.672351   -1.5314538   0.16582487    -1.365629 
  587000    33.944477   -1.4654185   0.16234371   -1.3030747 
  588000    40.967379   -1.5350162   0.19593163   -1.3390846 
  589000    37.554764   -1.5640854   0.17961037    -1.384475 
  590000    33.015341   -1.5558312   0.15790001   -1.3979312 
  591000    34.283948   -1.5444795   0.16396728   -1.3805122 
  592000    24.252116   -1.5703133   0.11598878   -1.4543245 
  593000    25.507629   -1.5318386   0.12199343   -1.4098452 
  594000    29.769689   -1.6191742   0.14237727   -1.4767969 
  595000    23.657064   -1.5923372   0.11314288   -1.4791943 
  596000    26.359247   -1.5779268    0.1260664   -1.4518604 
  597000    30.023725   -1.5914206   0.14359223   -1.4478284 
  598000    24.547407   -1.5963292   0.11740105   -1.4789281 
  599000    26.419054   -1.5871382   0.12635244   -1.4607857 
  600000    22.895945   -1.6175331   0.10950272   -1.5080304 
  601000    26.631985   -1.5904807   0.12737081   -1.4631099 
  602000    30.852922   -1.5414345   0.14755797   -1.3938765 
  603000    35.211022   -1.5486864   0.16840113   -1.3802853 
  604000    34.303011   -1.5496567   0.16405845   -1.3855982 
  605000    37.143233   -1.5410405   0.17764217   -1.3633983 
  606000    24.852132    -1.574613   0.11885844   -1.4557546 
  607000     37.31956   -1.5582493   0.17848547   -1.3797639 
  608000    29.730182   -1.5149209   0.14218832   -1.3727325 
  609000    32.266121   -1.5964971   0.15431677   -1.4421803 
  610000    32.586965   -1.5141498   0.15585125   -1.3582985 
  611000    34.301378   -1.5290875   0.16405064   -1.3650369 
  612000    32.956671   -1.5656859   0.15761941   -1.4080664 
  613000    28.649929   -1.5823962   0.13702188   -1.4453743 
  614000    32.184864   -1.5436708   0.15392815   -1.3897426 
  615000    25.533455   -1.6057982   0.12211695   -1.4836812 
  616000    25.028665   -1.5244051   0.11970273   -1.4047024 
  617000    39.482107   -1.5810786   0.18882813   -1.3922504 
  618000    23.997085    -1.565786   0.11476907   -1.4510169 
  619000    26.689026   -1.5803179   0.12764361   -1.4526743 
  620000    29.413798   -1.6138457   0.14067518   -1.4731705 
  621000    24.683944   -1.5907289   0.11805406   -1.4726748 
  622000    21.225223   -1.5813851   0.10151229   -1.4798728 
  623000    33.373852   -1.5743363   0.15961463   -1.4147216 
  624000    24.177568   -1.5243957   0.11563225   -1.4087635 
  625000    33.133374   -1.5573764   0.15846451   -1.3989118 
  626000    27.086497   -1.5738663   0.12954457   -1.4443218 
  627000    30.033661   -1.5198185   0.14363975   -1.3761788 
  628000    34.982977   -1.5362254   0.16731048   -1.3689149 
  629000    31.704953   -1.5353952   0.15163291   -1.3837623 
  630000     34.57598   -1.5578764   0.16536396   -1.3925124 
  631000     23.84238   -1.5590714   0.11402917   -1.4450423 
  632000    35.801255   -1.4847608   0.17122399   -1.3135368 
  633000    26.061149   -1.5578833   0.12464071   -1.4332426 
  634000    28.141594   -1.5447766    0.1345907   -1.4101859 
  635000    36.478228    -1.520806    0.1744617   -1.3463443 
  636000    35.474117   -1.5048494   0.16965941     -1.33519 
  637000    39.321925   -1.5764681   0.18806204   -1.3884061 
  638000    36.289313   -1.5447426   0.17355819   -1.3711844 
  639000    34.344883   -1.5039563   0.16425871   -1.3396976 
  640000    31.652638   -1.5750512   0.15138271   -1.4236685 
  641000    21.794693   -1.5756288   0.10423585   -1.4713929 
  642000    32.488311    -1.552845   0.15537942   -1.3974656 
  643000    24.810438   -1.5405582   0.11865903   -1.4218992 
  644000     32.49419   -1.5623786   0.15540754   -1.4069711 
  645000     38.16848   -1.5434277   0.18254554   -1.3608822 
  646000    27.010811   -1.5573349   0.12918259   -1.4281523 
  647000     33.63268   -1.5718253   0.16085251   -1.4109728 
  648000    26.776063   -1.5753351   0.12805988   -1.4472752 
  649000    31.230673   -1.5968294   0.14936461   -1.4474648 
  650000    23.094452   -1.5980374   0.11045211   -1.4875853 
  651000    26.088746   -1.5593987    0.1247727    -1.434626 
  652000    37.945306   -1.5620507   0.18147818   -1.3805725 
  653000    36.189944   -1.5000372   0.17308294   -1.3269542 
  654000     40.67965   -1.4769826   0.19455553   -1.2824271 
  655000    47.883075   -1.4820135   0.22900681   -1.2530067 
  656000    37.034739   -1.5501506   0.17712328   -1.3730273 
  657000    34.906406   -1.5090834   0.16694426   -1.3421391 
  658000    30.936453   -1.5685925   0.14795747    -1.420635 
  659000     30.49416   -1.5315186   0.14584215   -1.3856765 
  660000    32.464719    -1.554025   0.15526659   -1.3987584 
  661000    32.402919   -1.5702365   0.15497102   -1.4152655 
  662000    37.799876   -1.5456278   0.18078265   -1.3648451 
  663000    27.598962   -1.5726262    0.1319955   -1.4406307 
  664000    27.208749   -1.5629915   0.13012925   -1.4328622 
  665000    25.621411   -1.5828338   0.12253761   -1.4602962 
  666000    24.536765    -1.592321   0.11735016   -1.4749708 
  667000     24.98744   -1.5067996   0.11950557    -1.387294 
  668000    40.338558   -1.5632685   0.19292421   -1.3703443 
  669000    40.100289   -1.5598648   0.19178466   -1.3680802 
  670000    42.463775   -1.5622057   0.20308833   -1.3591174 
  671000    33.221281   -1.5406297   0.15888494   -1.3817448 
  672000    26.550287   -1.6056181   0.12698008    -1.478638 
  673000    27.471532    -1.529433   0.13138605   -1.3980469 
  674000    32.729963   -1.5506777   0.15653515   -1.3941425 
  675000    28.735547   -1.5429162   0.13743135   -1.4054848 
  676000     29.83382   -1.5502583   0.14268398   -1.4075743 
  677000     22.70439   -1.6194432   0.10858659   -1.5108567 
  678000    25.328069   -1.6033546   0.12113467   -1.4822199 
  679000    40.882649   -1.5506814    0.1955264    -1.355155 
  680000    33.837772   -1.5267018   0.16183339   -1.3648684 
  681000    34.725483   -1.4982732   0.16607898   -1.3321943 
  682000    32.016349    -1.519133    0.1531222   -1.3660108 
  683000    28.045354   -1.5164958   0.13413042   -1.3823654 
  684000    32.838853    -1.540333   0.15705593   -1.3832771 
  685000       29.071   -1.5971993    0.1390357   -1.4581635 
  686000    28.613873   -1.5791299   0.13684943   -1.4422804 
  687000    21.255734   -1.6083319   0.10165821   -1.5066737 
  688000    29.105092   -1.6310014   0.13919875   -1.4918027 
  689000    25.169869   -1.5858653   0.12037805   -1.4654873 
  690000    22.431678   -1.5976853   0.10728231    -1.490403 
  691000    25.397096   -1.5603885   0.12146479   -1.4389237 
  692000    24.760949   -1.5862665   0.11842234   -1.4678442 
  693000    24.675673   -1.5943434    0.1180145   -1.4763289 
  694000    31.598486   -1.5955006   0.15112372   -1.4443769 
  695000     34.30987   -1.6117573   0.16409125   -1.4476661 
  696000    25.260171   -1.5920507   0.12080994   -1.4712407 
  697000    29.772738   -1.6038728   0.14239185    -1.461481 
  698000    30.776019   -1.5878288   0.14719017   -1.4406387 
  699000    22.941974   -1.5963732   0.10972287   -1.4866503 
  700000    30.646781   -1.5855067   0.14657207   -1.4389346 
  701000    24.344111   -1.5826807   0.11642876   -1.4662519 
  702000    25.267701    -1.604625   0.12084595   -1.4837791 
  703000     30.88021   -1.5603383   0.14768847   -1.4126499 
  704000    28.160958   -1.5818625   0.13468331   -1.4471792 
  705000     25.73825   -1.5763162   0.12309641   -1.4532197 
  706000    28.619269   -1.5154399   0.13687524   -1.3785647 
  707000    33.635255   -1.5519407   0.16086482   -1.3910759 
  708000    25.407248   -1.5756305   0.12151335   -1.4541172 
  709000    35.286384   -1.5539373   0.16876155   -1.3851757 
  710000    34.113393   -1.6067198   0.16315158   -1.4435682 
  711000    37.489227   -1.5362422   0.17929693   -1.3569452 
  712000    28.359772   -1.5214865   0.13563416   -1.3858523 
  713000    32.041017   -1.5519257   0.15324018   -1.3986855 
  714000    27.027802    -1.553305   0.12926385   -1.4240412 
  715000    31.392508   -1.5605998    0.1501386   -1.4104612 
  716000    35.935543   -1.5965646   0.17186624   -1.4246984 
  717000    35.806995   -1.5373974   0.17125144   -1.3661459 
  718000    31.493941   -1.5369385   0.15062372   -1.3863147 
  719000    31.581357   -1.5546792    0.1510418   -1.4036374 
  720000    25.611326   -1.5377905   0.12248938   -1.4153011 
  721000    31.817662   -1.5626849   0.15217196   -1.4105129 
  722000    31.348415   -1.5545736   0.14992772   -1.4046458 
  723000    34.075272   -1.5364166   0.16296926   -1.3734473 
  724000    31.724531   -1.5580106   0.15172655    -1.406284 
  725000    34.879813   -1.5216198   0.16681708   -1.3548027 
  726000    31.607168   -1.5218366   0.15116524   -1.3706714 
  727000    26.454025   -1.5682928   0.12651969   -1.4417731 
  728000    33.536455   -1.5634639    0.1603923   -1.4030716 
  729000    29.632946   -1.5571057   0.14172328   -1.4153824 
  730000    40.376822   -1.5763447   0.19310722   -1.3832375 
  731000    36.320254   -1.4905375   0.17370617   -1.3168313 
  732000    37.588277   -1.5683213   0.17977065   -1.3885507 
  733000    26.031782   -1.5818763   0.12450026    -1.457376 
  734000    26.538919   -1.6125425   0.12692571   -1.4856168 
  735000    27.797014   -1.5667291   0.13294271   -1.4337864 
  736000    32.144899   -1.5521075   0.15373701   -1.3983705 
  737000    28.973244   -1.5496491   0.13856817   -1.4110809 
  738000    33.155411   -1.5181949   0.15856991    -1.359625 
  739000    35.022973   -1.5895267   0.16750176    -1.422025 
  740000    29.161548   -1.5884513   0.13946876   -1.4489825 
  741000    28.899861   -1.5696493   0.13821721   -1.4314321 
  742000    25.430182   -1.5586115   0.12162303   -1.4369885 
  743000    28.008874   -1.5235433   0.13395595   -1.3895873 
  744000    29.126615   -1.5148621   0.13930169   -1.3755604 
  745000    28.734099   -1.5359382   0.13742443   -1.3985138 
  746000     26.35793   -1.5272961    0.1260601    -1.401236 
  747000    43.414697   -1.5585459   0.20763623   -1.3509096 
  748000    35.314032   -1.5599082   0.16889378   -1.3910144 
  749000    31.273363   -1.5018036   0.14956878   -1.3522348 
  750000    37.725095   -1.5235245     0.180425   -1.3430995 
  751000     34.76146   -1.5624373   0.16625104   -1.3961862 
  752000    33.395644   -1.5672264   0.15971885   -1.4075075 
  753000    38.422376   -1.5454751   0.18375983   -1.3617153 
  754000    31.888766   -1.5807583   0.15251202   -1.4282463 
  755000    34.545375   -1.5526198   0.16521759   -1.3874022 
  756000    26.115776   -1.6304573   0.12490197   -1.5055553 
  757000    21.271986   -1.6276195   0.10173594   -1.5258835 
  758000    24.184825   -1.6215126   0.11566696   -1.5058457 
  759000    33.681191   -1.5604908   0.16108452   -1.3994063 
  760000    31.343996   -1.5469409   0.14990659   -1.3970343 
  761000     31.34289   -1.5277633    0.1499013    -1.377862 
  762000     33.81784   -1.5547575   0.16173806   -1.3930195 
  763000    40.431853   -1.5663747   0.19337041   -1.3730043 
  764000    29.732212   -1.5648774   0.14219803   -1.4226793 
  765000    32.916288   -1.5720421   0.15742627   -1.4146158 
  766000     30.85792   -1.6116833   0.14758187   -1.4641015 
  767000    17.640594   -1.5946937   0.08436835   -1.5103254 
  768000    25.988923   -1.6117374   0.12429528   -1.4874421 
  769000    26.006923   -1.5992745   0.12438137   -1.4748931 
  770000    26.496446   -1.5555648   0.12672257   -1.4288423 
  771000    25.247306   -1.5902317   0.12074841   -1.4694833 
  772000    30.951016   -1.5789459   0.14802712   -1.4309187 
  773000    27.898391    -1.605413   0.13342755   -1.4719855 
  774000    23.888698   -1.5760795   0.11425069   -1.4618288 
  775000    25.354717   -1.6105063   0.12126211   -1.4892442 
  776000    27.501447   -1.5715732   0.13152912    -1.440044 
  777000    24.264025   -1.6119955   0.11604574   -1.4959498 
  778000      28.4804   -1.6018143   0.13621108   -1.4656032 
  779000    24.608369   -1.6019472   0.11769261   -1.4842546 
  780000    25.008732   -1.5782404    0.1196074    -1.458633 
  781000    26.072788   -1.5443936   0.12469638   -1.4196972 
  782000    34.934015   -1.5590219   0.16707631   -1.3919456 
  783000    46.797173   -1.5719025   0.22381334   -1.3480892 
  784000    33.083683   -1.5224625   0.15822686   -1.3642356 
  785000    24.923686    -1.625381   0.11920065   -1.5061804 
  786000    23.493956   -1.6149158   0.11236279    -1.502553 
  787000     29.46932   -1.5975223   0.14094072   -1.4565816 
  788000    22.681123   -1.6111846   0.10847531   -1.5027093 
  789000    30.830277   -1.5948282   0.14744966   -1.4473785 
  790000     29.02482   -1.5754356   0.13881484   -1.4366208 
  791000    22.995336   -1.6147931   0.10997808    -1.504815 
  792000    25.159684   -1.6212665   0.12032934   -1.5009371 
  793000    31.887688   -1.5917794   0.15250687   -1.4392726 
  794000    31.480371   -1.5998027   0.15055882   -1.4492439 
  795000    20.416324   -1.6053827  0.097643631   -1.5077391 
  796000    26.290935     -1.58625   0.12573969   -1.4605103 
  797000    24.608738    -1.630322   0.11769438   -1.5126276 
  798000    30.008317   -1.5763318   0.14351854   -1.4328132 
  799000    27.705141    -1.641041   0.13250331   -1.5085377 
  800000    20.435539   -1.6171345  0.097735528   -1.5193989 
  801000    16.331718   -1.6273202  0.078108487   -1.5492117 
  802000     28.92686   -1.6142007   0.13834633   -1.4758544 
  803000    27.076148   -1.6316146   0.12949507   -1.5021196 
  804000    25.353716   -1.5974364   0.12125733   -1.4761791 
  805000    24.502682    -1.625439   0.11718715   -1.5082519 
  806000    22.986351   -1.6262475    0.1099351   -1.5163124 
  807000    24.574158    -1.589948   0.11752899    -1.472419 
  808000    27.227235   -1.5739679   0.13021766   -1.4437503 
  809000     24.19532   -1.6086658   0.11571715   -1.4929487 
  810000    30.136014    -1.604013   0.14412927   -1.4598837 
  811000    21.737818    -1.594957   0.10396384   -1.4909932 
  812000    24.114292   -1.5780555   0.11532963   -1.4627258 
  813000    27.808559   -1.5596016   0.13299792   -1.4266037 
  814000    28.640137   -1.5907042   0.13697504   -1.4537292 
  815000    22.818145   -1.5751347   0.10913064    -1.466004 
  816000    28.020357   -1.6278927   0.13401087   -1.4938818 
  817000    28.386167   -1.5954863    0.1357604   -1.4597259 
  818000    30.626663   -1.5740771   0.14647585   -1.4276012 
  819000    25.253503   -1.6146943   0.12077804   -1.4939163 
  820000    33.982278   -1.5713473   0.16252451   -1.4088228 
  821000    24.038413   -1.5932021   0.11496672   -1.4782354 
  822000    29.223423   -1.5975179   0.13976468   -1.4577532 
  823000     29.77577   -1.5914093   0.14240635    -1.449003 
  824000    22.769546   -1.5589992   0.10889821    -1.450101 
  825000    24.376563   -1.6112509   0.11658397    -1.494667 
  826000    24.836962    -1.587318   0.11878588   -1.4685322 
  827000    27.714715   -1.5771278    0.1325491   -1.4445787 
  828000    24.945505   -1.6027324     0.119305   -1.4834274 
  829000    25.244708     -1.59894   0.12073598    -1.478204 
  830000    22.506283   -1.5878723   0.10763912   -1.4802332 
  831000    23.432619   -1.6233291   0.11206944   -1.5112597 
  832000    26.807586   -1.6214737   0.12821064   -1.4932631 
  833000     27.21956   -1.5612824   0.13018096   -1.4311014 
  834000    26.180114   -1.5923047   0.12520968   -1.4670951 
  835000    30.591038   -1.5622063   0.14630548   -1.4159008 
  836000    33.653219    -1.542669   0.16095074   -1.3817182 
  837000    38.465157    -1.540364   0.18396444   -1.3563996 
  838000    34.340937   -1.5586297   0.16423984   -1.3943898 
  839000    35.490004   -1.5251479   0.16973539   -1.3554125 
  840000    27.062501   -1.5252617    0.1294298   -1.3958319 
  841000     36.89977   -1.5098861   0.17647778   -1.3334084 
  842000    31.907154   -1.5187251   0.15259997   -1.3661251 
  843000    30.030459   -1.5305365   0.14362443   -1.3869121 
  844000    33.698587   -1.5727868   0.16116772   -1.4116191 
  845000    35.085271   -1.5406102   0.16779971   -1.3728105 
  846000    31.241027   -1.5103656   0.14941413   -1.3609515 
  847000    34.672414   -1.5891631   0.16582517    -1.423338 
  848000    27.136796   -1.5674494   0.12978513   -1.4376643 
  849000    25.702215   -1.5819167   0.12292407   -1.4589926 
  850000    22.206627   -1.5574636   0.10620598   -1.4512577 
  851000    23.600163   -1.5941621   0.11287074   -1.4812914 
  852000    30.029871   -1.5506017   0.14362162     -1.40698 
  853000    24.345884    -1.627127   0.11643724   -1.5106898 
  854000      25.0502   -1.5696788   0.11980572    -1.449873 
  855000    18.635281   -1.6006306  0.089125565    -1.511505 
  856000    17.698539   -1.6081006  0.084645482   -1.5234551 
  857000    31.771063   -1.5951576   0.15194909   -1.4432085 
  858000     30.10504   -1.5448211   0.14398113   -1.4008399 
  859000     29.02727   -1.5493507   0.13882656   -1.4105241 
  860000    32.191029   -1.4951782   0.15395763   -1.3412205 
  861000    32.142672   -1.4815872   0.15372636   -1.3278608 
  862000    36.785356   -1.4536348   0.17593058   -1.2777043 
  863000    22.763213   -1.4537209   0.10886792    -1.344853 
  864000    32.117978   -1.4655275   0.15360826   -1.3119192 
  865000    35.617766   -1.4305725   0.17034643   -1.2602261 
  866000    37.342363    -1.431117   0.17859453   -1.2525224 
  867000    40.147639    -1.385173   0.19201111   -1.1931619 
  868000    42.384088    -1.432253   0.20270722   -1.2295458 
  869000    37.876126   -1.4277564   0.18114732   -1.2466091 
  870000     40.61164   -1.4021076   0.19423026   -1.2078773 
  871000    36.844324   -1.4130804    0.1762126   -1.2368678 
  872000    42.475403   -1.4154327   0.20314394   -1.2122887 
  873000    44.862054   -1.4047469    0.2145584   -1.1901885 
  874000    40.625709   -1.3827813   0.19429755   -1.1884837 
  875000    42.530306    -1.399089   0.20340652   -1.1956825 
  876000    42.713084   -1.3711334   0.20428068   -1.1668528 
  877000    36.673931    -1.402825   0.17539767   -1.2274274 
  878000    30.518023   -1.3892264   0.14595627   -1.2432701 
  879000    43.101278   -1.4588908   0.20613727   -1.2527536 
  880000    30.633347   -1.4708047   0.14650782   -1.3242969 
  881000    36.733973   -1.5262852   0.17568483   -1.3506003 
  882000    35.007772   -1.5406609   0.16742906   -1.3732318 
  883000    31.128688   -1.5088843   0.14887685   -1.3600074 
  884000    34.198836   -1.5425163   0.16356022    -1.378956 
  885000    36.215246   -1.4959801   0.17320395   -1.3227762 
  886000    23.866783    -1.571171   0.11414588   -1.4570251 
  887000    29.816062   -1.5595029   0.14259905   -1.4169039 
  888000    32.037534   -1.5286629   0.15322352   -1.3754394 
  889000    40.038508   -1.5132373   0.19148919   -1.3217481 
  890000    38.801024   -1.5177952   0.18557076   -1.3322244 
  891000    32.079616    -1.487342   0.15342478   -1.3339172 
  892000    30.698599   -1.5540048    0.1468199   -1.4071849 
  893000    34.559375   -1.5091526   0.16528454    -1.343868 
  894000    34.430444   -1.4854525   0.16466791   -1.3207846 
  895000    32.358819   -1.4978845   0.15476011   -1.3431244 
  896000    36.040997   -1.5380247   0.17237059   -1.3656541 
  897000    30.879078   -1.5522307   0.14768306   -1.4045476 
  898000    30.982698    -1.487581   0.14817864   -1.3394024 
  899000    36.404669   -1.5082907   0.17410989   -1.3341808 
  900000    32.077623   -1.5272611   0.15341525   -1.3738459 
  901000    38.243649    -1.500735   0.18290505   -1.3178299 
  902000    28.815038    -1.549876   0.13781153   -1.4120645 
  903000    33.269276   -1.5387675   0.15911448    -1.379653 
  904000    32.253998   -1.5323938   0.15425879    -1.378135 
  905000    29.563544   -1.5207617   0.14139136   -1.3793704 
  906000    28.487144    -1.528909   0.13624334   -1.3926656 
  907000    32.639547   -1.5163249   0.15610272   -1.3602222 
  908000    38.843932   -1.5335459   0.18577598   -1.3477699 
  909000    25.685342   -1.4859577   0.12284337   -1.3631143 
  910000    32.218933   -1.4373313   0.15409109   -1.2832402 
  911000    39.353615   -1.3259218    0.1882136   -1.1377082 
  912000    36.763009   -1.3618281    0.1758237   -1.1860044 
  913000    37.755941   -1.4256902   0.18057252   -1.2451177 
  914000    47.530644   -1.4332726   0.22732126   -1.2059514 
  915000    40.443593   -1.4197759   0.19342655   -1.2263493 
  916000    46.366569   -1.4676322   0.22175393   -1.2458783 
  917000    35.704386   -1.3761505    0.1707607   -1.2053898 
  918000    42.579371   -1.3489906   0.20364118   -1.1453494 
  919000    50.425243   -1.4514523   0.24116505   -1.2102872 
  920000    40.519213   -1.3964587   0.19378822   -1.2026705 
  921000    35.849745   -1.3751968    0.1714559   -1.2037409 
  922000    31.645905   -1.4405704   0.15135051   -1.2892199 
  923000    42.133611   -1.4672264   0.20150928   -1.2657172 
  924000    34.045464   -1.4736942    0.1628267   -1.3108675 
  925000     37.29954   -1.4653303   0.17838973   -1.2869406 
  926000    43.342621   -1.4483464   0.20729152   -1.2410549 
  927000    40.031243    -1.417704   0.19145444   -1.2262496 
  928000    43.302563   -1.4204961   0.20709994   -1.2133962 
  929000     44.81762   -1.3403388   0.21434589   -1.1259929 
  930000    49.748498   -1.3673415   0.23792843   -1.1294131 
  931000     33.38077   -1.3605724   0.15964772   -1.2009247 
  932000     40.33529   -1.3710487   0.19290858   -1.1781401 
  933000    40.356367   -1.4211771   0.19300938   -1.2281677 
  934000    42.226689   -1.3908332   0.20195443   -1.1888788 
  935000    32.738528   -1.4174526   0.15657611   -1.2608765 
  936000    38.156594   -1.4583626   0.18248869   -1.2758739 
  937000    33.942672   -1.4288266   0.16233509   -1.2664915 
  938000    44.672574   -1.3228325   0.21365219   -1.1091803 
  939000    36.714505   -1.4245232   0.17559173   -1.2489314 
  940000    36.110978   -1.4776581   0.17270528   -1.3049528 
  941000     55.46309   -1.4690817   0.26525918   -1.2038226 
  942000    46.570787   -1.4429582   0.22273063   -1.2202275 
  943000    45.003319   -1.4914045   0.21523401   -1.2761705 
  944000    31.871966   -1.5468345   0.15243167   -1.3944028 
  945000    33.316981    -1.533002   0.15934264   -1.3736593 
  946000    32.493647   -1.4787689   0.15540494   -1.3233639 
  947000    27.247205   -1.5569793   0.13031317   -1.4266661 
  948000    28.681936   -1.5067613   0.13717495   -1.3695863 
  949000     35.17447   -1.5418767   0.16822631   -1.3736504 
  950000    31.938047   -1.5460156   0.15274771   -1.3932679 
  951000    35.597015   -1.5791479   0.17024719   -1.4089008 
  952000    31.375856   -1.5219068   0.15005897   -1.3718478 
  953000    34.833286   -1.5706842   0.16659456   -1.4040897 
  954000    33.222054    -1.542342   0.15888864   -1.3834534 
  955000    30.272217   -1.5403703   0.14478067   -1.3955897 
  956000    23.218896   -1.5128237   0.11104728   -1.4017764 
  957000     32.08738    -1.582343   0.15346192   -1.4288811 
  958000    24.740969   -1.5457465   0.11832679   -1.4274197 
  959000    31.719223    -1.468126   0.15170116   -1.3164248 
  960000    29.277587   -1.5161966   0.14002373   -1.3761729 
  961000    30.531045   -1.5164685   0.14601855     -1.37045 
  962000    31.973058   -1.5364972   0.15291516    -1.383582 
  963000    28.713091    -1.519499   0.13732396   -1.3821751 
  964000    36.835211   -1.5373849   0.17616902   -1.3612159 
  965000    32.724663   -1.5743283    0.1565098   -1.4178185 
  966000    40.415681   -1.5147361   0.19329306   -1.3214431 
  967000    40.252959   -1.5742265   0.19251482   -1.3817116 
  968000    28.448374   -1.5813136   0.13605791   -1.4452556 
  969000     26.39462   -1.5821678   0.12623558   -1.4559323 
  970000     29.76401   -1.5466458   0.14235011   -1.4042957 
  971000     28.53013   -1.5967008   0.13644892   -1.4602519 
  972000    23.271948   -1.5247709   0.11130101   -1.4134699 
  973000    41.655132   -1.5685324   0.19922089   -1.3693115 
  974000     31.19695    -1.531228   0.14920333   -1.3820246 
  975000    29.941423   -1.5647742   0.14319861   -1.4215756 
  976000    24.670977   -1.5804211   0.11799204   -1.4624291 
  977000    25.782614   -1.5589944   0.12330858   -1.4356858 
  978000    25.945599   -1.5604684   0.12408808   -1.4363803 
  979000    28.041731   -1.5942723    0.1341131   -1.4601592 
  980000    32.458267   -1.5336393   0.15523573   -1.3784036 
  981000     48.07553   -1.4964167   0.22992725   -1.2664894 
  982000    31.033629   -1.5098013   0.14842222   -1.3613791 
  983000    27.276849   -1.5385442   0.13045495   -1.4080893 
  984000     35.74878   -1.5484524   0.17097302   -1.3774793 
  985000    29.962836   -1.4945297   0.14330102   -1.3512287 
  986000    42.858934   -1.5273254   0.20497822   -1.3223472 
  987000    35.278669   -1.5423371   0.16872466   -1.3736124 
  988000    32.197796   -1.5064463      0.15399   -1.3524563 
  989000    23.189493    -1.536075   0.11090666   -1.4251683 
  990000    32.127406   -1.5198111   0.15365335   -1.3661578 
  991000    30.897769   -1.5378274   0.14777246   -1.3900549 
  992000    23.866712   -1.5789968   0.11414554   -1.4648512 
  993000    28.418396   -1.6130339   0.13591454   -1.4771193 
  994000    33.910854   -1.5617961   0.16218291   -1.3996132 
  995000    27.191233   -1.6029249   0.13004548   -1.4728795 
  996000    28.587227   -1.5975151     0.136722   -1.4607931 
  997000    26.430433    -1.560868   0.12640686   -1.4344611 
  998000    32.353969   -1.5925082   0.15473691   -1.4377713 
  999000    22.394172   -1.5681815   0.10710293   -1.4610786 
 1000000    30.255802   -1.5786243   0.14470217   -1.4339221 
 1001000    29.016716   -1.5603535   0.13877608   -1.4215774 
 1002000     31.43763   -1.5779099   0.15035441   -1.4275555 
 1003000    27.179654   -1.6110412    0.1299901   -1.4810511 
 1004000     28.65546   -1.5771184   0.13704833   -1.4400701 
 1005000    35.163951   -1.6026883     0.168176   -1.4345123 
 1006000    24.530128   -1.6115916   0.11731841   -1.4942732 
 1007000    27.825936    -1.613299   0.13308103    -1.480218 
 1008000    30.232513    -1.531946   0.14459078   -1.3873552 
 1009000    25.554949   -1.6234192   0.12221975   -1.5011994 
 1010000    20.134623   -1.5958144  0.096296356    -1.499518 
 1011000    27.619761   -1.6263947   0.13209497   -1.4942998 
 1012000    37.566647   -1.5854774    0.1796672   -1.4058102 
 1013000    19.473065   -1.5992939  0.093132374   -1.5061616 
 1014000    28.433545   -1.5824562     0.135987   -1.4464693 
 1015000    25.229398   -1.5834339   0.12066276   -1.4627712 
 1016000    20.470428   -1.5680979  0.097902388   -1.4701955 
 1017000    21.521461   -1.6106343   0.10292909   -1.5077052 
 1018000    26.678537   -1.6364443   0.12759345   -1.5088508 
 1019000    19.304848   -1.6396495  0.092327854   -1.5473216 
 1020000     16.83697   -1.6352383  0.080524922   -1.5547134 
 1021000     25.80878   -1.6097644   0.12343373   -1.4863307 
 1022000    21.940314   -1.6026335    0.1049323   -1.4977012 
 1023000    22.605182   -1.6398855   0.10811212   -1.5317734 
 1024000     19.04603   -1.6011992  0.091090027   -1.5101092 
 1025000    23.350922   -1.6089551   0.11167871   -1.4972763 
 1026000    22.695433   -1.6337846   0.10854375   -1.5252408 
 1027000    26.418693   -1.5797648   0.12635071   -1.4534141 
 1028000    28.541207    -1.568712    0.1365019   -1.4322101 
 1029000    30.124753   -1.5888398   0.14407541   -1.4447644 
 1030000    29.018088   -1.6074996   0.13878264    -1.468717 
 1031000    29.573829    -1.573632   0.14144055   -1.4321914 
 1032000    32.588925   -1.5920354   0.15586062   -1.4361748 
 1033000    27.319034   -1.5748669    0.1306567   -1.4442102 
 1034000    23.482908   -1.5721804   0.11230995   -1.4598705 
 1035000    26.675794   -1.6106953   0.12758033    -1.483115 
 1036000    28.665011   -1.5951812   0.13709401   -1.4580872 
 1037000    27.944893   -1.5816102   0.13364996   -1.4479603 
 1038000    26.857118   -1.5415785   0.12844753   -1.4131309 
 1039000    27.659795   -1.5457535   0.13228644    -1.413467 
 1040000    28.550739   -1.5752253   0.13654749   -1.4386778 
 1041000    26.044444   -1.5790273   0.12456082   -1.4544665 
 1042000    29.209711    -1.615126    0.1396991   -1.4754269 
 1043000    26.050091    -1.574525   0.12458782   -1.4499371 
 1044000    28.074951   -1.5823886   0.13427197   -1.4481167 
 1045000    23.686336   -1.5841024   0.11328287   -1.4708195 
 1046000    23.362641   -1.5682342   0.11173476   -1.4564995 
 1047000    36.472011   -1.5497954   0.17443196   -1.3753634 
 1048000    38.071723   -1.5766369   0.18208279   -1.3945542 
 1049000    27.295923   -1.6328449   0.13054617   -1.5022988 
 1050000    20.063346   -1.5734317  0.095955468   -1.4774762 
 1051000    26.165861    -1.608903   0.12514151   -1.4837615 
 1052000    22.704578   -1.6054927   0.10858749   -1.4969052 
 1053000    24.874057   -1.6288105    0.1189633   -1.5098472 
 1054000    25.159107   -1.6256808   0.12032659   -1.5053542 
 1055000     24.27001   -1.6332639   0.11607437   -1.5171895 
 1056000    22.458256   -1.6110874   0.10740943    -1.503678 
 1057000    22.499873   -1.6118554   0.10760846   -1.5042469 
 1058000    21.411632   -1.6548012   0.10240381   -1.5523974 
 1059000    19.823558   -1.6117864   0.09480865   -1.5169778 
 1060000    20.898558   -1.6002603  0.099949974   -1.5003103 
 1061000    20.620958   -1.6254741  0.098622318   -1.5268518 
 1062000    24.277351    -1.640331   0.11610948   -1.5242216 
 1063000    20.845905     -1.59592  0.099698154   -1.4962218 
 1064000    23.244646   -1.6596314   0.11117043    -1.548461 
 1065000     19.82613   -1.6128134  0.094820954   -1.5179925 
 1066000    20.319676   -1.6394935    0.0971814   -1.5423121 
 1067000    19.100724   -1.6259507  0.091351607   -1.5345991 
 1068000    21.227096   -1.6324449   0.10152125   -1.5309237 
 1069000    21.267026   -1.6295819   0.10171222   -1.5278696 
 1070000    23.130227   -1.6504146   0.11062321   -1.5397914 
 1071000    17.065789   -1.6151641  0.081619277   -1.5335449 
 1072000    22.842216   -1.5993944   0.10924576   -1.4901486 
 1073000     24.75704   -1.6082883   0.11840365   -1.4898846 
 1074000    22.543394   -1.5819792   0.10781661   -1.4741626 
 1075000    34.905371   -1.5665435   0.16693931   -1.3996042 
 1076000    27.157111   -1.6379574   0.12988229   -1.5080751 
 1077000    24.864185   -1.6119638   0.11891608   -1.4930477 
 1078000    23.598461   -1.6409482    0.1128626   -1.5280856 
 1079000    26.428987   -1.6246415   0.12639994   -1.4982415 
 1080000    25.018184    -1.640282    0.1196526   -1.5206294 
 1081000    27.349113   -1.6240685   0.13080056   -1.4932679 
 1082000    20.762662    -1.620902  0.099300036   -1.5216019 
 1083000    22.156984   -1.6103825   0.10596855    -1.504414 
 1084000    20.092359    -1.633467  0.096094226   -1.5373728 
 1085000    20.687081   -1.6385729   0.09893856   -1.5396344 
 1086000    18.735998   -1.5859176  0.089607257   -1.4963104 
 1087000    20.705314   -1.6220508  0.099025761    -1.523025 
 1088000    22.424259   -1.6210151   0.10724683   -1.5137683 
 1089000     18.77562   -1.6377042  0.089796758   -1.5479075 
 1090000    29.653018   -1.6493608   0.14181927   -1.5075415 
 1091000    24.520505   -1.6334864   0.11727239    -1.516214 
 1092000    19.061157    -1.648687  0.091162373   -1.5575246 
 1093000    22.417637   -1.6436868   0.10721516   -1.5364717 
 1094000    21.554571   -1.6750564   0.10308744    -1.571969 
 1095000    24.273474    -1.629525   0.11609093   -1.5134341 
 1096000    19.250981   -1.6347201  0.092070231   -1.5426499 
 1097000    22.259807   -1.6483415   0.10646032   -1.5418812 
 1098000    23.138223   -1.6255701   0.11066145   -1.5149087 
 1099000    16.824066   -1.6528889  0.080463205   -1.5724257 
 1100000    19.487762   -1.6179961  0.093202666   -1.5247935 
 1101000    18.233895    -1.627717  0.087205889   -1.5405112 
 1102000    24.308722   -1.6019055   0.11625951    -1.485646 
 1103000    21.324688   -1.6343151   0.10198799   -1.5323271 
 1104000    20.451871   -1.6342201  0.097813636   -1.5364065 
 1105000    19.870608   -1.6005415  0.095033676   -1.5055079 
 1106000    25.974965   -1.5617606   0.12422853   -1.4375321 
 1107000    27.536559   -1.5742323   0.13169704   -1.4425352 
 1108000    28.835971   -1.5912654   0.13791165   -1.4533538 
 1109000    23.061981   -1.6557643   0.11029681   -1.5454674 
 1110000    23.656058   -1.6177526   0.11313806   -1.5046145 
 1111000    21.166528    -1.618068   0.10123157   -1.5168364 
 1112000    24.408328   -1.5969751   0.11673589   -1.4802392 
 1113000    24.140132   -1.5859484   0.11545321   -1.4704952 
 1114000    20.813134   -1.6062509  0.099541424   -1.5067095 
 1115000    20.953914   -1.6176153   0.10021472   -1.5174005 
 1116000    32.721344   -1.5756143   0.15649393   -1.4191204 
 1117000    33.142878   -1.5639224   0.15850997   -1.4054125 
 1118000    24.269592   -1.5406741   0.11607237   -1.4246017 
 1119000    25.326742   -1.5669323   0.12112832    -1.445804 
 1120000    26.756506   -1.5683782   0.12796635   -1.4404118 
 1121000    22.021341   -1.6341164   0.10531982   -1.5287966 
 1122000    25.668641   -1.5972974   0.12276349   -1.4745339 
 1123000    22.267679   -1.6631766   0.10649797   -1.5566787 
 1124000    25.646356   -1.6367696   0.12265691   -1.5141126 
 1125000    23.129168   -1.6448841   0.11061814   -1.5342659 
 1126000    24.908635   -1.6409937   0.11912867   -1.5218651 
 1127000       24.972   -1.6393853   0.11943172   -1.5199535 
 1128000    21.630879   -1.6385158   0.10345239   -1.5350635 
 1129000     25.61297   -1.6168993   0.12249724    -1.494402 
 1130000    23.521321   -1.6691677   0.11249367   -1.5566741 
 1131000    21.765039   -1.5801369   0.10409403   -1.4760429 
 1132000    22.900184   -1.6259163     0.109523   -1.5163933 
 1133000    23.225177   -1.6084828   0.11107732   -1.4974055 
 1134000    27.065716   -1.5738721   0.12944518   -1.4444269 
 1135000    30.251902   -1.5773488   0.14468352   -1.4326652 
 1136000    38.113556   -1.5293227   0.18228286   -1.3470398 
 1137000    24.783757    -1.553666   0.11853143   -1.4351345 
 1138000    26.163666   -1.5737684   0.12513101   -1.4486374 
 1139000    29.076712   -1.5837906   0.13906302   -1.4447276 
 1140000    26.702033   -1.5691912   0.12770582   -1.4414854 
 1141000    19.107047   -1.6242385  0.091381846   -1.5328567 
 1142000    22.760211   -1.5682272   0.10885356   -1.4593736 
 1143000    37.126085   -1.5395665   0.17756015   -1.3620064 
 1144000    35.814777   -1.5897536   0.17128866    -1.418465 
 1145000    24.727071   -1.6058211   0.11826032   -1.4875607 
 1146000    25.315127   -1.5958538   0.12107277   -1.4747811 
 1147000    33.723513   -1.5748443   0.16128693   -1.4135573 
 1148000    24.795051   -1.5900836   0.11858544   -1.4714981 
 1149000    22.796046   -1.5877421   0.10902495   -1.4787171 
 1150000    29.532702   -1.5821158   0.14124385    -1.440872 
 1151000    23.898536    -1.578914   0.11429774   -1.4646162 
 1152000     26.31136   -1.5803574   0.12583738     -1.45452 
 1153000    22.394932   -1.6052629   0.10710657   -1.4981563 
 1154000     24.01517   -1.6067811   0.11485556   -1.4919256 
 1155000    23.376844   -1.5807528   0.11180269   -1.4689501 
 1156000    20.754836   -1.5856432  0.099262607   -1.4863806 
 1157000    23.201656   -1.5948089   0.11096483   -1.4838441 
 1158000    30.979423   -1.5449555   0.14816297   -1.3967925 
 1159000    30.200549   -1.5988594   0.14443791   -1.4544215 
 1160000    26.597893    -1.593898   0.12720776   -1.4666902 
 1161000    24.706829    -1.545144   0.11816351   -1.4269805 
 1162000    30.040337   -1.5748939   0.14367168   -1.4312222 
 1163000    31.089651   -1.5684037   0.14869015   -1.4197136 
 1164000      28.4776   -1.5639692   0.13619769   -1.4277715 
 1165000    31.019522   -1.5420046   0.14835475   -1.3936499 
 1166000    26.836852   -1.5644213   0.12835061   -1.4360707 
 1167000    23.623837   -1.5368939   0.11298396     -1.42391 
 1168000    27.805198   -1.5873669   0.13298185    -1.454385 
 1169000    26.068092   -1.5371685   0.12467392   -1.4124946 
 1170000    26.211942   -1.5381826    0.1253619   -1.4128207 
 1171000      28.5187   -1.5799272   0.13639426    -1.443533 
 1172000    25.978088   -1.5693203   0.12424346   -1.4450768 
 1173000    24.793768   -1.5474997    0.1185793   -1.4289204 
 1174000    26.288416   -1.5831306   0.12572764    -1.457403 
 1175000    21.924635   -1.5741643   0.10485731    -1.469307 
 1176000    27.671847   -1.5789727   0.13234408   -1.4466286 
 1177000    28.107893   -1.6022195   0.13442952     -1.46779 
 1178000    26.829956   -1.5795061   0.12831763   -1.4511884 
 1179000    22.665595   -1.5607269   0.10840105   -1.4523259 
 1180000    25.152104   -1.5898894   0.12029309   -1.4695963 
 1181000    26.181863   -1.5637748   0.12521804   -1.4385568 
 1182000    21.739955   -1.5393144   0.10397406   -1.4353403 
 1183000    21.349724   -1.5719795   0.10210773   -1.4698717 
 1184000    23.015271    -1.559744   0.11007342   -1.4496705 
 1185000    39.116318   -1.5564884   0.18707869   -1.3694097 
 1186000    38.362208   -1.5079293   0.18347207   -1.3244572 
 1187000    33.163344   -1.5236306   0.15860785   -1.3650228 
 1188000    29.577673    -1.529303   0.14145893    -1.387844 
 1189000     34.37457   -1.5251827   0.16440069    -1.360782 
 1190000    35.037925   -1.5010907   0.16757327   -1.3335174 
 1191000    33.392236   -1.5341227   0.15970256   -1.3744201 
 1192000    27.864567   -1.5504415   0.13326578   -1.4171758 
 1193000    40.351198   -1.5123461   0.19298466   -1.3193614 
 1194000    34.746834   -1.5186881   0.16618109    -1.352507 
 1195000    28.611237   -1.5440736   0.13683683   -1.4072368 
 1196000    31.305495   -1.5169302   0.14972246   -1.3672078 
 1197000    32.860807   -1.5544558   0.15716093   -1.3972948 
 1198000    28.521557   -1.5985051   0.13640792   -1.4620971 
 1199000    24.742481   -1.5800505   0.11833402   -1.4617165 
 1200000    25.502781   -1.6042127   0.12197025   -1.4822425 
 1201000    26.729027    -1.577225   0.12783492   -1.4493901 
 1202000    26.550117   -1.5950231   0.12697926   -1.4680439 
 1203000     17.76421   -1.6281825  0.084959561   -1.5432229 
 1204000    22.415074   -1.6053119    0.1072029    -1.498109 
 1205000    20.914425   -1.6352626   0.10002586   -1.5352367 
 1206000    20.083143   -1.6314244  0.096050147   -1.5353743 
 1207000    21.708679   -1.6088639   0.10382448   -1.5050394 
 1208000     21.02761   -1.6466646   0.10056718   -1.5460974 
 1209000    25.255609   -1.6119266   0.12078811   -1.4911385 
 1210000    18.724972   -1.6142604  0.089554525   -1.5247058 
 1211000    19.117749    -1.615379  0.091433033   -1.5239459 
 1212000    22.459469   -1.6106423   0.10741523   -1.5032271 
 1213000    21.212463   -1.6255593   0.10145126    -1.524108 
 1214000    17.834806   -1.6253191  0.085297195   -1.5400219 
 1215000    21.605044   -1.6076864   0.10332883   -1.5043576 
 1216000    19.892633   -1.6447508  0.095139011   -1.5496118 
 1217000    27.281616   -1.6178096   0.13047775   -1.4873319 
 1218000    24.429768   -1.6176603   0.11683843   -1.5008219 
 1219000    25.055892   -1.6294101   0.11983294   -1.5095771 
 1220000    25.158379    -1.612957    0.1203231   -1.4926339 
 1221000    22.300689    -1.632695   0.10665584   -1.5260392 
 1222000       18.627   -1.6274969   0.08908596   -1.5384109 
 1223000    17.418838   -1.6236105  0.083307775   -1.5403027 
 1224000    17.159515   -1.6451816  0.082067529   -1.5631141 
 1225000    21.330781   -1.6229752   0.10201714   -1.5209581 
 1226000    25.265637   -1.6215489   0.12083607   -1.5007128 
 1227000    19.355284   -1.6616877  0.092569073   -1.5691187 
 1228000    18.070483   -1.6154459  0.086424351   -1.5290215 
 1229000    26.867689   -1.6251037   0.12849809   -1.4966056 
 1230000    19.546716   -1.6380968  0.093484618   -1.5446122 
 1231000    28.094839   -1.5592901   0.13436709    -1.424923 
 1232000     24.45838   -1.6227832   0.11697527    -1.505808 
 1233000    26.709917   -1.5973848   0.12774353   -1.4696412 
 1234000    22.288045   -1.6131437   0.10659537   -1.5065483 
 1235000    28.510257   -1.6175471   0.13635388   -1.4811933 
 1236000    24.234325   -1.5285215    0.1159037   -1.4126178 
 1237000    23.021617   -1.6101663   0.11010377   -1.5000626 
 1238000    20.364321   -1.5819161  0.097394921   -1.4845212 
 1239000    36.673676   -1.5292849   0.17539645   -1.3538885 
 1240000    29.243693   -1.4609019   0.13986163   -1.3210403 
 1241000    46.936805   -1.5348699   0.22448115   -1.3103887 
 1242000    31.570181   -1.5373464   0.15098835    -1.386358 
 1243000    20.859482   -1.5812568  0.099763089   -1.4814937 
 1244000    24.423264   -1.5914969   0.11680732   -1.4746895 
 1245000    20.396536   -1.6281548   0.09754899   -1.5306058 
 1246000    25.498178   -1.5753228   0.12194823   -1.4533746 
 1247000    28.870064    -1.589361    0.1380747   -1.4512863 
 1248000     25.69539   -1.5819767   0.12289143   -1.4590853 
 1249000    28.828736   -1.5531412   0.13787704   -1.4152642 
 1250000    25.653563   -1.5677907   0.12269138   -1.4450993 
 1251000    30.869216   -1.5389697    0.1476359   -1.3913338 
 1252000    29.908058   -1.5518402   0.14303904   -1.4088011 
 1253000     29.92938   -1.5843613   0.14314101   -1.4412203 
 1254000     32.13673   -1.6006659   0.15369794    -1.446968 
 1255000    20.747052     -1.56053  0.099225377   -1.4613047 
 1256000    25.156984   -1.5756153   0.12031643   -1.4552988 
 1257000    20.595571   -1.6112981    0.0985009   -1.5127972 
 1258000    23.620773   -1.5444411   0.11296931   -1.4314718 
 1259000    31.344531   -1.5478083   0.14990915   -1.3978991 
 1260000    26.597621   -1.5547919   0.12720646   -1.4275854 
 1261000    25.256124   -1.5747602   0.12079058   -1.4539696 
 1262000    24.625697   -1.6164377   0.11777548   -1.4986623 
 1263000    25.030696   -1.5828619   0.11971244   -1.4631495 
 1264000    21.272866   -1.6196546   0.10174015   -1.5179145 
 1265000    24.467219   -1.5821606   0.11701754   -1.4651431 
 1266000    22.285263    -1.597741   0.10658206    -1.491159 
 1267000     23.32698   -1.5724526   0.11156421   -1.4608884 
 1268000    29.359096   -1.5565847   0.14041356   -1.4161711 
 1269000    26.257054   -1.5931787   0.12557765   -1.4676011 
 1270000    31.287519   -1.5300654   0.14963648   -1.3804289 
 1271000    31.238537   -1.5811939   0.14940222   -1.4317917 
 1272000    34.706786    -1.509361   0.16598956   -1.3433714 
 1273000    27.742649   -1.5968293    0.1326827   -1.4641466 
 1274000    26.984152   -1.6076869   0.12905509   -1.4786318 
[...]
 4706000    36.903716   -1.3813314   0.17649665   -1.2048348 
 4707000    44.580376   -1.4394406   0.21321124   -1.2262294 
 4708000     38.64131   -1.4383448   0.18480691   -1.2535379 
 4709000    41.025256   -1.4909977   0.19620843   -1.2947893 
 4710000    42.696613   -1.4777311   0.20420191   -1.2735292 
 4711000    41.719571   -1.4867418   0.19952908   -1.2872127 
 4712000     39.43494   -1.4208856   0.18860254   -1.2322831 
 4713000    48.753829   -1.4677256    0.2331713   -1.2345543 
 4714000      33.0127    -1.451532   0.15788738   -1.2936446 
 4715000    44.540048   -1.3757079   0.21301836   -1.1626895 
 4716000    42.815517   -1.4228189   0.20477058   -1.2180484 
 4717000    48.428029   -1.4060243   0.23161312   -1.1744111 
 4718000    43.625866   -1.4995703   0.20864617   -1.2909242 
 4719000     49.13743   -1.4311179   0.23500592    -1.196112 
 4720000    43.320361   -1.4352105   0.20718506   -1.2280255 
 4721000    28.176673   -1.4341274   0.13475847   -1.2993689 
 4722000    41.722834   -1.4614029   0.19954468   -1.2618582 
 4723000    47.560843   -1.3531113    0.2274657   -1.1256456 
 4724000    46.319975   -1.4297961   0.22153109    -1.208265 
 4725000    32.526533   -1.4622324   0.15556222   -1.3066701 
 4726000    38.409646    -1.478867   0.18369895   -1.2951681 
 4727000    31.448933   -1.4827582   0.15040846   -1.3323497 
 4728000    31.924921   -1.4667966   0.15268494   -1.3141117 
 4729000    33.688274   -1.4761762   0.16111839   -1.3150578 
 4730000    32.902388    -1.476606   0.15735979   -1.3192462 
 4731000    38.423845   -1.4740169   0.18376686   -1.2902501 
 4732000    31.610109   -1.5037635   0.15117931   -1.3525842 
 4733000    37.571128    -1.535986   0.17968863   -1.3562974 
 4734000     36.24142   -1.4567613   0.17332914   -1.2834322 
 4735000    26.585648    -1.498781   0.12714919   -1.3716318 
 4736000    46.705315   -1.4903706   0.22337403   -1.2669966 
 4737000    39.500862   -1.4995924   0.18891782   -1.3106746 
 4738000    42.981139   -1.3960051   0.20556269   -1.1904424 
 4739000    39.238582   -1.4190449   0.18766344   -1.2313815 
 4740000    32.100302   -1.4431995   0.15352372   -1.2896758 
 4741000    38.882768   -1.4757209   0.18596171   -1.2897591 
 4742000    41.988105   -1.4686798   0.20081337   -1.2678664 
 4743000    46.832728   -1.4823107   0.22398339   -1.2583273 
 4744000    42.863427    -1.487875   0.20499971   -1.2828753 
 4745000    38.431152   -1.4658486    0.1838018   -1.2820468 
 4746000    41.201993   -1.4888128    0.1970537   -1.2917591 
 4747000    37.365766   -1.5263144   0.17870646   -1.3476079 
 4748000     33.94729   -1.4714445   0.16235717   -1.3090873 
 4749000    25.713907   -1.5269717   0.12297998   -1.4039917 
 4750000    32.388176   -1.5216943   0.15490051   -1.3667938 
 4751000    40.632009   -1.5031101   0.19432768   -1.3087824 
 4752000    34.166642   -1.4110359   0.16340625   -1.2476297 
 4753000    34.114401   -1.5197811    0.1631564   -1.3566247 
 4754000    36.812557    -1.425769   0.17606067   -1.2497084 
 4755000    36.878818   -1.5122648   0.17637757   -1.3358873 
 4756000    32.870122   -1.4746328   0.15720548   -1.3174274 
 4757000     39.47148    -1.429682    0.1887773   -1.2409047 
 4758000     37.52537   -1.4349348   0.17946979    -1.255465 
 4759000    47.143839   -1.4405344   0.22547132   -1.2150631 
 4760000    47.993108   -1.3852897   0.22953306   -1.1557567 
 4761000    41.682329   -1.4198921   0.19935096   -1.2205411 
 4762000    38.939652   -1.3459601   0.18623377   -1.1597263 
 4763000    40.889867   -1.4037511   0.19556092   -1.2081902 
 4764000    32.045182   -1.3919725    0.1532601   -1.2387124 
 4765000    52.060172   -1.3923529    0.2489843   -1.1433686 
 4766000    45.901243   -1.4395416   0.21952845   -1.2200132 
 4767000    44.655912   -1.4385863    0.2135725   -1.2250138 
 4768000    32.164532   -1.4197693    0.1538309   -1.2659384 
 4769000    35.688162   -1.4890612   0.17068311   -1.3183781 
 4770000    32.576365   -1.3987775   0.15580055   -1.2429769 
 4771000     35.21312   -1.4057091   0.16841116   -1.2372979 
 4772000    37.746393   -1.4565051   0.18052685   -1.2759783 
 4773000    37.120885   -1.4188968   0.17753529   -1.2413615 
 4774000    35.246712   -1.4611573   0.16857182   -1.2925855 
 4775000    30.509156   -1.4357342   0.14591386   -1.2898203 
 4776000    40.976155   -1.4727984    0.1959736   -1.2768248 
 4777000    37.620453   -1.4150104   0.17992453   -1.2350858 
 4778000    33.700549   -1.4042636    0.1611771   -1.2430865 
 4779000    36.429994   -1.4497503   0.17423101   -1.2755193 
 4780000    50.278476    -1.389718   0.24046311   -1.1492548 
 4781000    30.447848   -1.4613217   0.14562065    -1.315701 
 4782000    30.821915   -1.4808151   0.14740967   -1.3334055 
 4783000    37.823635   -1.4486637   0.18089628   -1.2677674 
 4784000    38.688493   -1.5147877   0.18503257   -1.3297551 
 4785000    29.227917   -1.4817257   0.13978618   -1.3419395 
 4786000    40.122203   -1.4407391   0.19188947   -1.2488496 
 4787000    36.731002   -1.4547828   0.17567062   -1.2791122 
 4788000    36.149598   -1.5319616   0.17288998   -1.3590716 
 4789000    40.585887   -1.4756694   0.19410709   -1.2815623 
 4790000    39.656443   -1.4886418   0.18966191   -1.2989799 
 4791000    44.502292   -1.4314147   0.21283779   -1.2185769 
 4792000    40.132795   -1.4480852   0.19194012   -1.2561451 
 4793000    34.945094   -1.4522072   0.16712929   -1.2850779 
 4794000    42.496106   -1.4693254   0.20324295   -1.2660824 
 4795000    49.842891   -1.4198619   0.23837987    -1.181482 
 4796000    52.553473   -1.4511787   0.25134357   -1.1998352 
 4797000    30.912725   -1.4397716   0.14784398   -1.2919276 
 4798000    36.679302   -1.5164488   0.17542336   -1.3410254 
 4799000     35.76994   -1.5634508   0.17107422   -1.3923766 
 4800000    33.532295   -1.5318721    0.1603724   -1.3714997 
 4801000    38.276124   -1.5116868   0.18306036   -1.3286264 
 4802000    32.583658   -1.4906333   0.15583543   -1.3347979 
 4803000     28.14874    -1.551659   0.13462488   -1.4170341 
 4804000    32.033275   -1.5275584   0.15320315   -1.3743552 
 4805000    36.490245   -1.4905783   0.17451917   -1.3160591 
 4806000    38.644553    -1.561656   0.18482242   -1.3768336 
 4807000    28.590818   -1.5665672   0.13673917   -1.4298281 
 4808000    22.295998   -1.5716531    0.1066334   -1.4650197 
 4809000    26.922442   -1.5885042   0.12875995   -1.4597442 
 4810000    28.713822   -1.5695164   0.13732745    -1.432189 
 4811000    23.828107   -1.5569065   0.11396091   -1.4429456 
 4812000    25.896886   -1.6002118    0.1238551   -1.4763567 
 4813000    34.324822   -1.5471713   0.16416276   -1.3830085 
 4814000    36.019314   -1.5735131   0.17226688   -1.4012462 
 4815000    31.187446   -1.5077012   0.14915787   -1.3585433 
 4816000     37.09771   -1.4963287   0.17742445   -1.3189042 
 4817000    26.287681   -1.4503874   0.12572413   -1.3246633 
 4818000    47.576993   -1.4861439   0.22754293   -1.2586009 
 4819000    36.203186   -1.4807983   0.17314627    -1.307652 
 4820000    39.583996   -1.3903864   0.18931542    -1.201071 
 4821000    45.037772    -1.413931   0.21539879   -1.1985322 
 4822000    33.841476   -1.4834148    0.1618511   -1.3215637 
 4823000     33.81806   -1.4826369   0.16173911   -1.3208978 
 4824000    37.296471   -1.4786605   0.17837505   -1.3002854 
 4825000    36.940545   -1.4349522   0.17667279   -1.2582794 
 4826000     45.24271   -1.5072992   0.21637893   -1.2909203 
 4827000    36.033619   -1.4406766    0.1723353   -1.2683413 
 4828000    45.541685   -1.4815826   0.21780882   -1.2637738 
 4829000    34.911104   -1.5510975   0.16696673   -1.3841308 
 4830000    33.231601   -1.5637905    0.1589343   -1.4048562 
 4831000    32.764417   -1.5344356   0.15669993   -1.3777356 
 4832000    26.638005   -1.5347982    0.1273996   -1.4073986 
 4833000    38.992719   -1.5523043   0.18648757   -1.3658167 
 4834000     31.53937   -1.5840367   0.15084099   -1.4331957 
 4835000    25.285312   -1.5813529   0.12093018   -1.4604227 
 4836000    38.933418   -1.5224133   0.18620395   -1.3362093 
 4837000    33.907336   -1.4958383   0.16216609   -1.3336722 
 4838000     37.91709   -1.5579147   0.18134324   -1.3765714 
 4839000    39.703045    -1.539701   0.18988479   -1.3498162 
 4840000    34.321723   -1.5244786   0.16414794   -1.3603307 
 4841000    35.058252   -1.5305002   0.16767048   -1.3628297 
 4842000    37.214964    -1.534485   0.17798523   -1.3564998 
 4843000      24.0253   -1.5259507   0.11490401   -1.4110467 
 4844000    32.957934   -1.5229463   0.15762545   -1.3653209 
 4845000    37.083129    -1.517897   0.17735471   -1.3405423 
 4846000    34.863349   -1.4944436   0.16673834   -1.3277052 
 4847000    32.371814   -1.5387884   0.15482226   -1.3839662 
 4848000    36.964683   -1.5561104   0.17678823   -1.3793222 
 4849000    41.579887   -1.5741981   0.19886102   -1.3753371 
 4850000    26.639896    -1.610128   0.12740864   -1.4827194 
 4851000    24.670339   -1.5782254   0.11798899   -1.4602364 
 4852000    27.811558   -1.5040592   0.13301226    -1.371047 
 4853000     32.21195   -1.5831411   0.15405769   -1.4290834 
 4854000     23.96057   -1.5838434   0.11459443    -1.469249 
 4855000    27.486423   -1.6156899   0.13145726   -1.4842326 
 4856000    21.521645   -1.6059853   0.10292996   -1.5030553 
 4857000    24.021947   -1.6118519   0.11488797    -1.496964 
 4858000    24.388115   -1.5723353   0.11663922    -1.455696 
 4859000    32.900335   -1.5450895   0.15734998   -1.3877395 
 4860000    28.111231   -1.5619832   0.13444549   -1.4275377 
 4861000    29.023068   -1.5835387   0.13880646   -1.4447323 
 4862000    30.288921    -1.593436   0.14486056   -1.4485755 
 4863000    28.265413   -1.5725647   0.13518288   -1.4373818 
 4864000    35.243354   -1.5670062   0.16855576   -1.3984504 
 4865000     21.70175   -1.6224482   0.10379134   -1.5186569 
 4866000    24.553014   -1.5718196   0.11742787   -1.4543917 
 4867000    28.682165    -1.598462   0.13717605   -1.4612859 
 4868000    24.835281   -1.5840588   0.11877784    -1.465281 
 4869000     21.66557   -1.5510008    0.1036183   -1.4473825 
 4870000    36.364746   -1.4799568   0.17391896   -1.3060378 
 4871000    35.954641    -1.525675   0.17195758   -1.3537174 
 4872000    25.063448   -1.5128521   0.11986908    -1.392983 
 4873000    33.063797   -1.5415286   0.15813175   -1.3833968 
 4874000    39.689627   -1.5568665   0.18982062   -1.3670458 
 4875000    31.307262   -1.5542903   0.14973091   -1.4045594 
 4876000    29.365997   -1.5286214   0.14044656   -1.3881748 
 4877000    35.887745   -1.4968034   0.17163764   -1.3251658 
 4878000    30.113024   -1.5810415   0.14401931   -1.4370222 
 4879000    21.943865   -1.6092823   0.10494928    -1.504333 
 4880000    21.730296   -1.5938741   0.10392787   -1.4899463 
 4881000    30.415985   -1.5093271   0.14546826   -1.3638588 
 4882000    33.044116   -1.5316672   0.15803763   -1.3736295 
 4883000     36.97819   -1.5430181   0.17685283   -1.3661653 
 4884000    32.819253   -1.5325039   0.15696219   -1.3755417 
 4885000    27.526251   -1.5119706   0.13164774   -1.3803228 
 4886000    28.767768   -1.5530999   0.13758546   -1.4155144 
 4887000     35.61013   -1.5188517   0.17030991   -1.3485418 
 4888000    30.916788   -1.5250858   0.14786342   -1.3772224 
 4889000    32.551152   -1.5183377   0.15567996   -1.3626578 
 4890000    27.844475   -1.5353317   0.13316969    -1.402162 
 4891000    35.785191   -1.5620152   0.17114716    -1.390868 
 4892000    29.469509    -1.540582   0.14094162   -1.3996403 
 4893000    35.872916   -1.5141543   0.17156672   -1.3425876 
 4894000    25.521928   -1.5041213   0.12206182   -1.3820595 
 4895000      36.1193   -1.5341678   0.17274508   -1.3614227 
 4896000    30.582536   -1.5125683   0.14626481   -1.3663035 
 4897000     29.62617   -1.5333891   0.14169087   -1.3916982 
 4898000    22.839438   -1.4976391   0.10923247   -1.3884067 
 4899000    36.269098   -1.5201484   0.17346151   -1.3466869 
 4900000    37.577288   -1.5042162   0.17971809   -1.3244981 
 4901000    34.899825   -1.5119798   0.16691279    -1.345067 
 4902000    29.868872   -1.4824807   0.14285162   -1.3396291 
 4903000    43.908253   -1.4586201   0.20999673   -1.2486233 
 4904000    36.594226   -1.4296968   0.17501647   -1.2546803 
 4905000    41.587585   -1.4644121   0.19889784   -1.2655143 
 4906000    39.717371   -1.4830898   0.18995331   -1.2931365 
 4907000    49.166544   -1.4732439   0.23514516   -1.2380987 
 4908000    35.980255   -1.4343948   0.17208008   -1.2623148 
 4909000    41.419132   -1.4621397   0.19809219   -1.2640475 
 4910000    43.563089     -1.40402   0.20834593   -1.1956741 
 4911000    33.168464   -1.4662562   0.15863234   -1.3076239 
 4912000    44.771692   -1.4882454   0.21412623   -1.2741192 
 4913000    51.091771   -1.4589773    0.2443528   -1.2146245 
 4914000    31.808628    -1.462125   0.15212875   -1.3099962 
 4915000    32.472853   -1.5595077   0.15530549   -1.4042023 
 4916000    24.789615   -1.5261225   0.11855944   -1.4075631 
 4917000    37.917133   -1.4894137   0.18134344   -1.3080703 
 4918000    46.154067   -1.4089606   0.22073761   -1.1882229 
 4919000    42.110361   -1.4868903   0.20139808   -1.2854922 
 4920000    36.520143   -1.4953532   0.17466216   -1.3206911 
 4921000    42.791306   -1.4783665   0.20465478   -1.2737117 
 4922000    39.662166   -1.4354703   0.18968928    -1.245781 
 4923000    49.341669   -1.4130542   0.23598272   -1.1770715 
 4924000    44.655302   -1.4344853   0.21356958   -1.2209157 
 4925000    43.268583    -1.409878   0.20693742   -1.2029406 
 4926000    41.038197   -1.4466468   0.19627032   -1.2503765 
 4927000    38.187669   -1.4929859   0.18263731   -1.3103486 
 4928000    41.177944    -1.476351   0.19693868   -1.2794123 
 4929000    38.677794    -1.388878    0.1849814   -1.2038966 
 4930000    40.966837   -1.4445172   0.19592904   -1.2485882 
 4931000    31.998216   -1.4379952   0.15303548   -1.2849598 
 4932000    31.728708   -1.4657572   0.15174653   -1.3140107 
 4933000    39.555392   -1.4105239   0.18917862   -1.2213453 
 4934000    33.194666   -1.5161521   0.15875765   -1.3573944 
 4935000    26.710275   -1.4361367   0.12774524   -1.3083914 
 4936000    39.733123   -1.4602035   0.19002864   -1.2701748 
 4937000    40.051269   -1.5514943   0.19155021   -1.3599441 
 4938000    32.326787   -1.5044475   0.15460691   -1.3498406 
 4939000    36.132429   -1.5483457   0.17280787   -1.3755378 
 4940000    27.835622   -1.5156893   0.13312735   -1.3825619 
 4941000    30.023683    -1.557729   0.14359203    -1.414137 
 4942000    29.235429   -1.4936769    0.1398221   -1.3538548 
 4943000    31.385207    -1.550107   0.15010369   -1.4000033 
 4944000    33.012655   -1.5511711   0.15788716   -1.3932839 
 4945000    22.277949   -1.5354131   0.10654709    -1.428866 
 4946000    25.519581   -1.5101531    0.1220506   -1.3881025 
 4947000    34.689876   -1.4815361   0.16590868   -1.3156274 
 4948000    31.969737    -1.546193   0.15289927   -1.3932938 
 4949000    36.701249   -1.5063336   0.17552832   -1.3308053 
 4950000    27.735191   -1.4813898   0.13264703   -1.3487428 
 4951000    36.056169   -1.5076475   0.17244315   -1.3352043 
 4952000    48.487125   -1.4056851   0.23189575   -1.1737893 
 4953000    46.449437   -1.3906989   0.22215026   -1.1685486 
 4954000    41.429986   -1.4200254    0.1981441   -1.2218813 
 4955000     45.44063   -1.4751522   0.21732551   -1.2578267 
 4956000    43.366568   -1.4338098   0.20740605   -1.2264038 
 4957000    38.273424   -1.3878564   0.18304745    -1.204809 
 4958000    40.140656   -1.4644667   0.19197772   -1.2724889 
 4959000    44.121273   -1.4166745   0.21101552    -1.205659 
 4960000    35.855526   -1.4537971   0.17148355   -1.2823135 
 4961000    43.774381   -1.4306109   0.20935646   -1.2212545 
 4962000     40.86387   -1.4931607   0.19543658   -1.2977241 
 4963000    33.013933   -1.4425949   0.15789327   -1.2847016 
 4964000    43.010687   -1.3931091     0.205704   -1.1874051 
 4965000    43.739316   -1.4282491   0.20918876   -1.2190604 
 4966000    31.778032   -1.3581651   0.15198242   -1.2061827 
 4967000    35.137044   -1.3980257   0.16804732   -1.2299784 
 4968000    46.248784   -1.3930856   0.22119061    -1.171895 
 4969000    41.158682   -1.4275569   0.19684655   -1.2307103 
 4970000    45.836687   -1.4761949    0.2192197   -1.2569752 
 4971000    42.332491   -1.4151603   0.20246044   -1.2126999 
 4972000    44.136433   -1.3947952   0.21108802   -1.1837072 
 4973000    44.733499   -1.4134662   0.21394357   -1.1995226 
 4974000     37.02756   -1.4931291   0.17708895   -1.3160401 
 4975000     42.58613   -1.4246566   0.20367351   -1.2209831 
 4976000    34.895031   -1.4384337   0.16688986   -1.2715439 
 4977000    31.102439   -1.4534478   0.14875131   -1.3046965 
 4978000    28.390328   -1.4738226    0.1357803   -1.3380423 
 4979000    40.473223   -1.4144518   0.19356827   -1.2208836 
 4980000    43.895399   -1.4238592   0.20993525    -1.213924 
 4981000    44.462858   -1.4272087   0.21264919   -1.2145595 
 4982000    42.390969   -1.4440556   0.20274012   -1.2413154 
 4983000    38.883855   -1.3942179   0.18596691    -1.208251 
 4984000    33.649914   -1.3982542   0.16093493   -1.2373192 
 4985000    48.765169   -1.3632107   0.23322553   -1.1299852 
 4986000    38.257286   -1.4154067   0.18297027   -1.2324365 
 4987000    45.147033   -1.4217963   0.21592135   -1.2058749 
 4988000    35.057077   -1.4287635   0.16766487   -1.2610987 
 4989000    38.024663   -1.4225814   0.18185772   -1.2407236 
 4990000    42.657759   -1.4202076   0.20401608   -1.2161915 
 4991000    44.986602    -1.374661   0.21515406   -1.1595069 
 4992000    43.192795   -1.4075492   0.20657496   -1.2009743 
 4993000    29.847189   -1.3835862   0.14274792   -1.2408383 
 4994000    37.915729   -1.4957494   0.18133673   -1.3144127 
 4995000    39.473156   -1.4266743   0.18878532    -1.237889 
 4996000     29.11153   -1.4215938   0.13922954   -1.2823642 
 4997000    41.323282   -1.5099169   0.19763378   -1.3122831 
 4998000    45.869599   -1.4708267   0.21937711   -1.2514496 
 4999000     46.46888   -1.4435144   0.22224325   -1.2212711 
 5000000    47.198335   -1.4427483   0.22573195   -1.2170163 
Loop time of 1276.16 on 1 procs for 5000000 steps with 38 atoms

Performance: 338.516 ns/day, 0.071 hours/ns, 3918.010 timesteps/s
97.6% CPU use with 1 MPI tasks x no OpenMP threads

MPI task timing breakdown:
Section |  min time  |  avg time  |  max time  |%varavg| %total
---------------------------------------------------------------
Pair    | 1219.8     | 1219.8     | 1219.8     |   0.0 | 95.58
Neigh   | 0.0022526  | 0.0022526  | 0.0022526  |   0.0 |  0.00
Comm    | 1.1714     | 1.1714     | 1.1714     |   0.0 |  0.09
Output  | 0.2106     | 0.2106     | 0.2106     |   0.0 |  0.02
Modify  | 17.291     | 17.291     | 17.291     |   0.0 |  1.35
Other   |            | 37.7       |            |       |  2.95

Nlocal:        38.0000 ave          38 max          38 min
Histogram: 1 0 0 0 0 0 0 0 0 0
Nghost:        0.00000 ave           0 max           0 min
Histogram: 1 0 0 0 0 0 0 0 0 0
Neighs:        0.00000 ave           0 max           0 min
Histogram: 1 0 0 0 0 0 0 0 0 0

Total # of neighbors = 0
Ave neighs/atom = 0.0000000
Neighbor list builds = 9506
Dangerous builds = 0


---------------------------------------------------------------------
      Device Time Info (average): 
---------------------------------------------------------------------
Data Transfer:   440.4851 s.
Data Cast/Pack:  2.0851 s.
Neighbor copy:   1.0939 s.
Neighbor build:  0.7432 s.
Force calc:      255.2179 s.
Neighbor (CPU):  0.2161 s.
Device Overhead: 178.1600 s.
Average split:   1.0000.
Threads / atom:  4.
Max Mem / Proc:  0.06 MB.
CPU Driver_Time: 185.9665 s.
CPU Idle_Time:   1034.8863 s.
---------------------------------------------------------------------

Total wall time: 0:21:16
