38
Atoms. Timestep: 0
Ar 1.668 1.873 0
Ar 5.651 1.903 0.003
Ar 1.878 5.656 -0.01
Ar -1.867 1.863 -0.007
Ar -5.65 1.873 -0.014
Ar -1.898 5.645 -0.014
Ar -1.857 -1.873 0
Ar -5.64 -1.903 -0.003
Ar -1.867 -5.656 0.01
Ar 1.878 -1.863 0.007
Ar 5.661 -1.873 0.014
Ar 1.909 -5.645 0.014
Ar 0.002 0.007 2.642
Ar 3.751 0.017 2.659
Ar -3.75 -0.003 2.646
Ar -0.008 3.756 2.646
Ar 0.012 -3.745 2.659
Ar 3.761 3.786 2.656
Ar -3.778 3.766 2.646
Ar -3.757 -3.773 2.663
Ar 3.781 -3.752 2.673
Ar 0.009 -0.007 -2.642
Ar 3.761 0.003 -2.646
Ar -3.74 -0.017 -2.659
Ar -0.002 3.746 -2.659
Ar 0.019 -3.756 -2.646
Ar 3.768 3.773 -2.663
Ar -3.771 3.752 -2.673
Ar -3.75 -3.786 -2.656
Ar 3.788 -3.766 -2.646
Ar 1.871 1.897 5.329
Ar -1.888 1.886 5.325
Ar -1.878 -1.873 5.332
Ar 1.881 -1.863 5.339
Ar 1.888 1.873 -5.332
Ar -1.871 1.863 -5.339
Ar -1.861 -1.897 -5.329
Ar 1.898 -1.886 -5.325
38
Atoms. Timestep: 10000
Ar 1.92712 1.85397 -0.00358415
Ar 5.69681 1.89942 0.0354869
Ar 1.90189 5.74734 -0.0393967
Ar -1.86016 1.84645 -0.0269938
Ar -5.67098 1.86751 -0.0105202
Ar -1.89457 5.65155 -0.024347
Ar -1.88337 -1.9006 -0.0231386
Ar -5.6863 -1.92932 -0.0211037
Ar -1.89082 -5.75204 0.0210693
Ar 1.88906 -1.89248 0.0683514
Ar 5.62376 -1.8911 0.0489006
Ar 1.97187 -5.64059 -0.00612054
Ar -0.00568532 -0.0233485 2.5431
Ar 3.73184 0.0411827 2.69191
Ar -3.74789 0.0388186 2.62809
Ar -0.0445866 3.75943 2.58423
Ar 0.0331112 -3.78335 2.67959
Ar 3.72591 3.79675 2.63227
Ar -3.76131 3.79474 2.69867
Ar -3.7273 -3.72316 2.62833
Ar 3.82221 -3.78026 2.73008
Ar -0.0308861 0.067182 -2.63945
Ar 3.72352 -0.0174909 -2.5912
Ar -3.75519 -0.0550182 -2.66496
Ar -0.0465917 3.73765 -2.63355
Ar 0.0248356 -3.71595 -2.61958
Ar 3.73214 3.7578 -2.65793
Ar -3.79392 3.75225 -2.62869
Ar -3.79142 -3.82016 -2.68361
Ar 3.78184 -3.73237 -2.64594
Ar 1.86302 1.9402 5.29435
Ar -1.82102 1.84606 5.26497
Ar -1.9156 -1.85449 5.32855
Ar 1.90496 -1.92019 5.28114
Ar 1.87467 1.89731 -5.29817
Ar -1.93011 1.90473 -5.40528
Ar -1.8671 -1.89974 -5.28875
Ar 1.89826 -1.86764 -5.24677
38
Atoms. Timestep: 20000
Ar 1.88564 1.86131 -0.013094
Ar 5.62017 1.85189 0.0445254
Ar 1.88149 5.62481 -0.0212678
Ar -1.92213 1.77133 -0.00477579
Ar -5.74078 1.87802 0.0261418
Ar -1.83936 5.59782 -0.131594
Ar -1.83018 -1.85765 0.0343293
Ar -5.62415 -1.85956 0.0279576
Ar -1.84537 -5.60653 -0.0367431
Ar 1.85997 -1.84284 0.0103155
Ar 5.5947 -1.9272 0.0675382
Ar 2.01209 -5.54072 0.0198865
Ar 0.0325473 0.0294618 2.6762
Ar 3.66575 0.0335839 2.66676
Ar -3.7631 0.0294811 2.65572
Ar -0.0306194 3.70727 2.58012
Ar -0.0047427 -3.75995 2.66696
Ar 3.79529 3.82018 2.66284
Ar -3.79063 3.72301 2.59771
Ar -3.76273 -3.76465 2.66913
Ar 3.87331 -3.76637 2.77161
Ar -0.0380829 -0.0349362 -2.61847
Ar 3.78041 0.00433713 -2.67227
Ar -3.8227 -0.0712602 -2.64849
Ar 0.0275934 3.64725 -2.62945
Ar 0.0396341 -3.70793 -2.71644
Ar 3.89618 3.79323 -2.6355
Ar -3.81716 3.76316 -2.7242
Ar -3.80713 -3.7557 -2.67051
Ar 3.75255 -3.66649 -2.66005
Ar 1.8554 1.87061 5.41756
Ar -1.96712 1.91408 5.33093
Ar -1.76756 -1.84984 5.33866
Ar 1.89542 -1.92184 5.39803
Ar 1.90735 1.95753 -5.42735
Ar -1.90598 1.79562 -5.33533
Ar -1.93421 -1.93042 -5.35963
Ar 1.84024 -1.80908 -5.35775
38
Atoms. Timestep: 30000
Ar 1.84679 1.88913 -0.0435813
Ar 5.62918 1.95031 -0.0287013
Ar 1.82247 5.72213 -0.140917
Ar -1.91996 1.91416 0.0188314
Ar -5.66292 1.82949 0.138548
Ar -1.98535 5.61972 0.0267251
Ar -1.8438 -1.8409 -0.0292758
Ar -5.6899 -1.86673 -0.00983674
Ar -1.87811 -5.64337 -0.0645524
Ar 1.87877 -1.88605 -0.00772062
Ar 5.74294 -1.85984 0.0602275
Ar 1.87746 -5.74012 0.0494636
Ar 0.0426541 0.0295035 2.66684
Ar 3.74227 0.0288654 2.6475
Ar -3.68611 -0.0460443 2.70743
Ar -0.0377078 3.81924 2.63075
Ar -0.0352194 -3.69332 2.63435
Ar 3.71595 3.87858 2.54925
Ar -3.82144 3.73685 2.74096
Ar -3.78804 -3.77257 2.58603
Ar 3.71539 -3.81601 2.67148
Ar 0.0388275 -0.0177119 -2.65264
Ar 3.78122 -0.0340471 -2.60504
Ar -3.77144 0.035511 -2.66886
Ar 0.0214259 3.67653 -2.65918
Ar 0.0241927 -3.71949 -2.64745
Ar 3.78103 3.80018 -2.72286
Ar -3.79865 3.80643 -2.65014
Ar -3.7525 -3.70618 -2.65522
Ar 3.8146 -3.92095 -2.57702
Ar 1.86364 1.95112 5.30567
Ar -1.84405 1.84939 5.37469
Ar -1.90316 -1.94225 5.34443
Ar 1.87616 -1.86641 5.3246
Ar 1.91935 1.83773 -5.32886
Ar -1.89552 1.84096 -5.3575
Ar -1.78344 -1.91537 -5.35615
Ar 1.965 -1.92746 -5.27226
38
Atoms. Timestep: 40000
Ar 1.86319 1.86905 0.00180253
Ar 5.58919 1.96373 0.0763338
Ar 1.97639 5.67678 -0.0306268
Ar -1.85241 1.88652 -0.00100477
Ar -5.7235 1.88778 -0.0370853
Ar -1.78904 5.70578 -0.00982448
Ar -1.81291 -1.90631 -0.0245377
Ar -5.72521 -1.85645 0.049394
Ar -1.81612 -5.71671 0.03655
Ar 1.88716 -1.94377 0.000160988
Ar 5.6168 -1.87699 0.122734
Ar 2.01299 -5.70077 -0.0244284
Ar 0.0300041 0.01321 2.63496
Ar 3.74443 0.111545 2.71753
Ar -3.7237 0.0102494 2.62328
Ar -0.0469567 3.77864 2.6307
Ar 0.0613817 -3.85112 2.6406
Ar 3.69786 3.8662 2.78121
Ar -3.86474 3.73571 2.58655
Ar -3.66572 -3.71766 2.57824
Ar 3.80452 -3.81407 2.65323
Ar -0.0290906 0.0311073 -2.67723
Ar 3.78103 0.00608782 -2.61566
Ar -3.76962 -0.0142447 -2.62443
Ar 0.0439827 3.76528 -2.722
Ar -0.0395858 -3.7418 -2.71204
Ar 3.77224 3.77905 -2.68275
Ar -3.70581 3.75946 -2.66434
Ar -3.8272 -3.89098 -2.51524
Ar 3.76505 -3.77335 -2.71717
Ar 1.87885 1.97066 5.37521
Ar -1.89968 1.91263 5.37761
Ar -1.91203 -1.86832 5.29315
Ar 1.89602 -1.87458 5.30184
Ar 1.86637 1.86196 -5.32729
Ar -1.8852 1.78017 -5.37073
Ar -1.97949 -1.9897 -5.3614
Ar 1.78254 -1.8338 -5.3633
38
Atoms. Timestep: 50000
Ar 1.85726 1.89452 -0.0436591
Ar 5.62997 1.91603 0.137149
Ar 1.82333 5.68133 -0.050867
Ar -1.86551 1.86063 -0.0584818
Ar -5.66421 1.82352 0.00890015
Ar -1.94434 5.61548 -0.0214772
Ar -1.86025 -1.8926 -0.0102723
Ar -5.59627 -1.93483 -0.0577486
Ar -1.86484 -5.64723 0.037069
Ar 1.86131 -1.86688 -0.0197987
Ar 5.61582 -1.90123 0.10677
Ar 1.92694 -5.72171 0.0155123
Ar 0.040822 -0.0332229 2.61037
Ar 3.75217 0.0272783 2.6997
Ar -3.6961 0.00907066 2.68054
Ar -0.0125886 3.70007 2.6419
Ar 0.0193716 -3.74397 2.66858
Ar 3.77057 3.85449 2.58479
Ar -3.84511 3.7238 2.66071
Ar -3.77608 -3.78912 2.72101
Ar 3.74264 -3.75122 2.77601
Ar -0.0431387 0.00982892 -2.69443
Ar 3.80564 -0.0454627 -2.61555
Ar -3.78518 -0.0394377 -2.63057
Ar 0.00268953 3.7771 -2.72444
Ar -0.0571015 -3.76573 -2.71344
Ar 3.80351 3.73058 -2.62926
Ar -3.82753 3.73888 -2.73817
Ar -3.76837 -3.78618 -2.69392
Ar 3.68968 -3.80259 -2.60382
Ar 1.93139 1.95529 5.32908
Ar -1.77692 1.87937 5.35128
Ar -1.78212 -1.87288 5.31538
Ar 1.92968 -1.78368 5.45267
Ar 1.87526 1.88891 -5.3342
Ar -1.90072 1.93871 -5.38672
Ar -1.8998 -1.75955 -5.40978
Ar 1.89014 -1.8864 -5.36081
38
Atoms. Timestep: 60000
Ar 1.90592 1.8346 0.0161337
Ar 5.6114 1.93193 -0.0722457
Ar 1.86009 5.67293 -0.0100143
Ar -1.87909 1.89317 -0.0256415
Ar -5.62049 1.92178 -0.0161826
Ar -1.95002 5.62429 -0.0335517
Ar -1.90167 -1.82487 0.035812
Ar -5.72265 -1.82812 0.0905841
Ar -1.84932 -5.74338 -0.0301361
Ar 1.91588 -1.89619 0.0359791
Ar 5.73646 -1.81912 -0.02194
Ar 1.91228 -5.63687 0.0296969
Ar -0.045141 0.0418806 2.61016
Ar 3.77472 0.028426 2.71371
Ar -3.82429 -0.0101493 2.68664
Ar -0.0052035 3.77288 2.58947
Ar 0.00563983 -3.74157 2.65717
Ar 3.79056 3.80879 2.66605
Ar -3.76213 3.74728 2.67985
Ar -3.75365 -3.88385 2.62689
Ar 3.87455 -3.76277 2.60797
Ar 0.00322254 0.00412968 -2.62546
Ar 3.75237 0.00940897 -2.64876
Ar -3.77555 -0.0354181 -2.66713
Ar -0.00436894 3.85141 -2.69464
Ar 0.00304631 -3.77241 -2.64467
Ar 3.74309 3.82905 -2.67635
Ar -3.7755 3.70164 -2.72862
Ar -3.75808 -3.7297 -2.53935
Ar 3.792 -3.85813 -2.62153
Ar 1.83223 1.83102 5.32782
Ar -1.94054 1.92303 5.31267
Ar -1.87759 -1.8727 5.39462
Ar 1.8745 -1.87372 5.26268
Ar 1.91465 1.82246 -5.29865
Ar -1.89182 1.86597 -5.3939
Ar -1.88381 -1.87527 -5.31848
Ar 1.92032 -1.95085 -5.27668
38
Atoms. Timestep: 70000
Ar 1.86722 1.79595 0.0225892
Ar 5.66874 1.92083 -0.0234032
Ar 1.8985 5.61769 -0.00786526
Ar -1.8781 1.86541 0.0318393
Ar -5.64285 1.82508 -0.032856
Ar -1.90939 5.6868 0.0596177
Ar -1.82693 -1.90806 0.0339595
Ar -5.7365 -1.97781 0.066561
Ar -1.89086 -5.63932 0.0276654
Ar 1.85886 -1.85363 -0.041941
Ar 5.68259 -1.8182 -0.0600036
Ar 1.8639 -5.61717 -0.0234871
Ar 0.0152844 0.0541961 2.6611
Ar 3.78314 0.0311388 2.62098
Ar -3.79095 -0.0200828 2.63588
Ar -0.0170987 3.83487 2.59594
Ar -0.0142584 -3.748 2.63612
Ar 3.7964 3.77398 2.67342
Ar -3.86782 3.75221 2.66369
Ar -3.78568 -3.77877 2.65379
Ar 3.73981 -3.71597 2.67813
Ar 0.0161749 -0.0204123 -2.64824
Ar 3.76356 -0.0279189 -2.70621
Ar -3.69518 -0.0341396 -2.62499
Ar -0.00230968 3.71464 -2.6061
Ar 0.0301644 -3.75182 -2.61618
Ar 3.71115 3.7119 -2.67831
Ar -3.74267 3.72848 -2.61409
Ar -3.81704 -3.82281 -2.55804
Ar 3.83267 -3.72574 -2.69801
Ar 1.83909 1.96712 5.30925
Ar -1.88043 1.96687 5.31052
Ar -1.9559 -1.88183 5.33295
Ar 1.88423 -1.80398 5.28919
Ar 1.93534 1.87573 -5.40884
Ar -1.77631 1.89514 -5.27273
Ar -1.83879 -1.95428 -5.302
Ar 1.88425 -1.91712 -5.37987
38
Atoms. Timestep: 80000
Ar 1.81595 1.81233 -0.0423478
Ar 5.60793 1.8129 0.00656169
Ar 1.78701 5.61647 -0.0350519
Ar -1.90849 1.82806 0.0227257
Ar -5.70639 1.86242 0.113842
Ar -2.01999 5.58918 -0.000813451
Ar -1.87601 -1.772 0.010666
Ar -5.49393 -1.95561 -0.00898271
Ar -1.97748 -5.68542 5.96338e-05
Ar 1.89253 -1.90567 0.0194734
Ar 5.6288 -1.99265 -0.0211769
Ar 1.85739 -5.61085 0.103442
Ar 0.0041687 0.0496095 2.69068
Ar 3.7453 0.0436343 2.61439
Ar -3.74898 0.0304034 2.67252
Ar 0.00750555 3.74135 2.57373
Ar 0.0374843 -3.66823 2.67539
Ar 3.7628 3.80995 2.69922
Ar -3.80094 3.823 2.71839
Ar -3.87422 -3.85265 2.67827
Ar 3.66178 -3.77585 2.69541
Ar -0.00170495 -0.0722451 -2.68957
Ar 3.80862 -0.026059 -2.68948
Ar -3.71507 0.0497856 -2.70738
Ar -0.087822 3.70629 -2.64915
Ar 0.0610801 -3.64664 -2.68396
Ar 3.78024 3.77229 -2.66609
Ar -3.80557 3.85802 -2.60106
Ar -3.68856 -3.89069 -2.71213
Ar 3.76297 -3.85298 -2.60711
Ar 2.05086 2.04261 5.46634
Ar -1.82933 1.88493 5.30609
Ar -1.82432 -1.85024 5.29163
Ar 1.9677 -1.73084 5.36898
Ar 1.84054 1.87216 -5.38973
Ar -1.91612 1.87102 -5.39642
Ar -1.81513 -1.89883 -5.449
Ar 2.01139 -1.88797 -5.37836
38
Atoms. Timestep: 90000
Ar 1.82684 1.88741 0.00668782
Ar 5.55901 1.99801 0.0415231
Ar 1.95026 5.5398 -0.0229154
Ar -1.88771 1.90416 -0.128422
Ar -5.82214 2.00745 -0.00605486
Ar -1.89573 5.59162 -0.222973
Ar -1.79257 -1.8259 -0.053009
Ar -5.73274 -1.7741 0.200617
Ar -1.81156 -5.80822 0.0561761
Ar 1.91004 -1.85215 0.00799121
Ar 5.73186 -1.87028 0.0521979
Ar 1.89193 -5.7606 -0.0422483
Ar 0.0378152 -0.0310007 2.62963
Ar 3.74071 0.00410648 2.66285
Ar -3.73389 0.0639191 2.70056
Ar -0.0130774 3.78887 2.64681
Ar 0.133345 -3.82337 2.76195
Ar 3.78712 3.77245 2.87734
Ar -3.77541 3.73958 2.62699
Ar -3.62964 -3.76121 2.47886
Ar 3.94376 -3.7735 2.6232
Ar -0.0943101 0.0572265 -2.75008
Ar 3.62478 0.0226634 -2.52851
Ar -3.90846 0.0789896 -2.60474
Ar -0.0086801 3.78436 -2.79608
Ar 0.0709257 -3.73287 -2.67312
Ar 3.72553 3.70824 -2.7639
Ar -3.75574 3.88541 -2.84495
Ar -3.80812 -3.82295 -2.44139
Ar 3.84037 -3.74005 -2.55795
Ar 1.863 1.74314 5.49333
Ar -1.90724 1.92409 5.29934
Ar -1.88248 -1.90909 5.24608
Ar 1.90595 -1.91909 5.37019
Ar 1.91706 1.87675 -5.37251
Ar -1.92028 1.84917 -5.43077
Ar -2.01987 -1.97208 -5.21807
Ar 1.94134 -1.84996 -5.32463
38
Atoms. Timestep: 100000
Ar 1.95897 1.86669 0.022337
Ar 5.70742 1.71766 -0.0433172
Ar 1.86245 5.69624 0.0646882
Ar -1.81261 1.89924 0.0486001
Ar -5.67656 1.75106 0.0021394
Ar -1.81357 5.78208 0.014823
Ar -1.8789 -1.85261 0.0105352
Ar -5.68793 -1.98653 -0.00486061
Ar -1.98107 -5.67487 0.0317029
Ar 1.81387 -1.85204 -0.00756906
Ar 5.67695 -2.07888 -0.131823
Ar 1.76941 -5.62735 0.0473125
Ar -0.0936208 0.038155 2.60986
Ar 3.84551 0.0890444 2.67839
Ar -3.76536 0.0280512 2.59381
Ar -0.148239 3.80298 2.62116
Ar 0.0357055 -3.76658 2.7444
Ar 3.77517 3.9448 2.63126
Ar -3.79508 3.7589 2.62002
Ar -3.64038 -3.7909 2.62613
Ar 3.67728 -3.60511 2.71413
Ar 0.0358966 -0.00409931 -2.62406
Ar 3.83155 0.0133152 -2.84615
Ar -3.68943 -0.0705109 -2.62498
Ar 0.00882536 3.72729 -2.64
Ar -0.0356612 -3.68113 -2.72715
Ar 3.82849 3.73788 -2.62084
Ar -3.87227 3.69554 -2.56975
Ar -3.83327 -3.78928 -2.65943
Ar 3.72439 -3.88446 -2.59415
Ar 2.00077 2.03556 5.31482
Ar -1.8714 1.86904 5.47037
Ar -2.03033 -1.95477 5.37174
Ar 1.89664 -1.79434 5.34811
Ar 1.91196 1.8887 -5.38505
Ar -1.82182 1.87642 -5.41847
Ar -1.86726 -1.88086 -5.3752
Ar 1.9555 -1.92333 -5.31356
38
Atoms. Timestep: 110000
Ar 1.83116 1.8593 -0.00520684
Ar 5.60834 1.94996 0.0836319
Ar 1.87699 5.53514 -0.178385
Ar -1.82669 1.89338 0.0510693
Ar -5.51585 2.04031 -0.116629
Ar -1.78666 5.76428 0.0910604
Ar -1.83192 -1.82044 -0.0045692
Ar -5.67488 -1.8372 -0.12181
Ar -1.71944 -5.69529 0.00798996
Ar 1.94134 -1.93646 0.08878
Ar 5.78473 -2.08955 0.0121982
Ar 2.06477 -5.67497 0.124151
Ar -0.0852642 -0.0319055 2.60706
Ar 3.669 -0.00458962 2.62117
Ar -3.65724 -0.0211971 2.58771
Ar -0.0485115 3.87954 2.64712
Ar -0.0668201 -3.77816 2.78555
Ar 3.70424 3.92476 2.60265
Ar -3.92237 3.74446 2.88919
Ar -3.81153 -3.72087 2.53943
Ar 3.78043 -3.79324 2.7829
Ar 0.0777948 0.00313928 -2.60201
Ar 3.86611 -0.104035 -2.77638
Ar -3.82872 0.117296 -2.56448
Ar 0.00661475 3.69454 -2.81127
Ar 0.0379712 -3.65242 -2.50203
Ar 3.79341 3.66235 -2.88433
Ar -3.80174 4.0098 -2.81682
Ar -3.73106 -3.9078 -2.68698
Ar 3.80816 -3.74391 -2.685
Ar 1.78454 1.9649 5.48638
Ar -2.04736 1.75725 5.47746
Ar -1.85395 -2.00237 5.38167
Ar 1.939 -1.84056 5.47959
Ar 1.96096 1.74273 -5.55267
Ar -2.01038 1.8295 -5.40337
Ar -2.02684 -1.7783 -5.16279
Ar 1.71368 -1.93836 -5.47202
38
Atoms. Timestep: 120000
Ar 1.83952 1.82749 -0.0154162
Ar 5.73032 1.84858 0.0832762
Ar 1.75197 5.67874 0.130478
Ar -1.93111 1.94709 -0.00599165
Ar -5.83796 1.84128 -0.112895
Ar -1.9629 5.62571 -0.0130813
Ar -1.92172 -1.82461 0.0516158
Ar -5.80487 -2.00204 -0.0941931
Ar -1.97101 -5.71203 0.0523234
Ar 1.82603 -2.01126 -0.0611099
Ar 5.58466 -1.93207 -0.0915162
Ar 1.91258 -5.63454 -0.0317233
Ar -0.0128257 0.0536681 2.58113
Ar 3.75353 -0.0838823 2.67721
Ar -3.78246 -0.0565987 2.72461
Ar -0.0306906 3.77009 2.51177
Ar -0.088355 -3.70793 2.69327
Ar 3.84861 3.80409 2.49272
Ar -3.77448 3.93431 2.8968
Ar -3.7918 -3.76428 2.7652
Ar 3.84061 -3.73689 2.61352
Ar 0.150406 -0.00335401 -2.64843
Ar 3.93881 0.0895306 -2.85135
Ar -3.81658 0.079988 -2.7452
Ar 0.0463497 3.75521 -2.64145
Ar -0.0541787 -3.83456 -2.67651
Ar 3.6617 3.85754 -2.37821
Ar -3.7288 3.86283 -2.65478
Ar -3.6722 -3.7079 -2.5914
Ar 3.93165 -3.75307 -2.64395
Ar 2.0418 1.96143 5.35176
Ar -1.69843 2.01169 5.29381
Ar -1.99936 -1.71607 5.46097
Ar 1.76865 -1.81639 5.31519
Ar 1.91551 1.77033 -5.44339
Ar -1.7059 1.6637 -5.32424
Ar -1.86938 -1.97341 -5.26948
Ar 1.91431 -2.11139 -5.40135
38
Atoms. Timestep: 130000
Ar 1.82266 1.92741 0.0148268
Ar 5.83333 2.1341 0.120751
Ar 1.84032 5.63881 0.0153183
Ar -1.88572 2.08011 -0.204271
Ar -5.72557 1.93101 0.0282987
Ar -1.80893 5.75402 -0.175298
Ar -1.75444 -1.95991 -0.0699622
Ar -5.69483 -1.81408 0.0623604
Ar -2.07006 -5.86343 -0.0496773
Ar 1.88226 -1.98062 -0.0284492
Ar 5.68071 -1.7281 0.00810646
Ar 1.67049 -5.90281 0.150578
Ar 0.0225899 0.0506408 2.53947
Ar 3.61841 -0.0159997 2.59806
Ar -3.71164 0.0385597 2.50059
Ar -0.0600849 3.6912 2.66377
Ar 0.140451 -3.65591 2.60162
Ar 3.72312 3.64435 2.8974
Ar -3.81863 3.73327 2.51559
Ar -3.51952 -3.77399 2.73827
Ar 3.98774 -3.84276 2.68757
Ar -0.0783219 0.0113697 -2.71315
Ar 4.02139 -0.0665595 -2.74841
Ar -3.83896 0.0204451 -2.61672
Ar -0.0179816 3.96691 -2.97113
Ar -0.048402 -3.80564 -2.63815
Ar 3.78187 3.62352 -2.73721
Ar -4.0771 3.86177 -2.57468
Ar -3.82285 -3.83675 -2.56752
Ar 3.80843 -3.88764 -2.45887
Ar 1.67407 1.64721 5.44382
Ar -2.04109 1.94888 5.24349
Ar -1.58061 -1.66845 5.31086
Ar 2.01394 -2.03213 5.4216
Ar 1.84105 1.85503 -5.36604
Ar -1.85845 2.10814 -5.28275
Ar -1.85882 -1.86395 -5.08925
Ar 1.91119 -1.96702 -5.27081
38
Atoms. Timestep: 140000
Ar 1.87138 1.9221 -0.0249127
Ar 5.6043 1.94971 0.068123
Ar 2.02747 5.59049 -0.0646956
Ar -1.91676 1.91032 -0.076383
Ar -5.98389 1.73575 0.027082
Ar -1.95929 5.76779 0.118409
Ar -2.00032 -1.7833 -0.138671
Ar -5.66915 -2.19417 0.0236988
Ar -2.08324 -5.42326 0.0302895
Ar 1.94613 -2.05006 -0.0411116
Ar 5.65113 -1.97791 0.0486981
Ar 2.04785 -5.7651 -0.0108385
Ar 0.0304339 0.0198498 2.45778
Ar 3.70836 -0.0328623 2.55149
Ar -3.83241 0.139767 2.64618
Ar -0.0439423 3.60198 2.53177
Ar 0.0955711 -3.7015 2.56459
Ar 3.94702 3.74521 2.68597
Ar -3.72803 3.90672 2.69589
Ar -3.78446 -3.53504 2.9262
Ar 3.95787 -3.67852 2.82826
Ar 0.108008 0.124459 -2.65157
Ar 3.86222 -0.065112 -2.61544
Ar -3.78389 0.0384496 -2.84092
Ar -0.0586737 3.728 -2.6078
Ar 0.0120453 -3.65993 -2.6
Ar 3.81759 3.708 -2.70124
Ar -3.87136 3.91448 -2.38433
Ar -3.68269 -3.99717 -2.9245
Ar 3.83272 -4.01677 -2.56992
Ar 1.69947 1.85904 5.28144
Ar -1.98256 1.85012 5.45718
Ar -1.95674 -1.7395 5.33466
Ar 1.81511 -1.86477 5.24902
Ar 1.93924 1.87372 -5.28961
Ar -1.96902 1.86388 -5.4186
Ar -1.68523 -1.85354 -5.19165
Ar 2.01975 -1.91031 -5.37454
38
Atoms. Timestep: 150000
Ar 1.92168 1.80722 0.0449524
Ar 5.80095 2.03869 0.0865473
Ar 2.09498 5.68931 -0.0727934
Ar -2.09527 1.85703 0.0721748
Ar -5.73875 1.75143 0.0892055
Ar -1.74745 6.16931 -0.0742235
Ar -1.88331 -1.83265 -0.0859865
Ar -5.60176 -2.26129 0.0198291
Ar -2.08729 -5.58209 -0.0694671
Ar 1.98658 -2.02038 -0.135612
Ar 5.64496 -1.91702 0.000402991
Ar 1.81817 -5.56585 0.0800111
Ar -0.0819665 -0.0287783 2.5541
Ar 3.79481 -0.179823 2.64418
Ar -3.81521 -0.117165 2.69698
Ar -0.0841164 3.89267 2.54948
Ar -0.013683 -3.69356 2.6135
Ar 3.74733 3.77916 2.6145
Ar -3.9147 3.78794 2.77796
Ar -3.74462 -3.77725 2.85815
Ar 3.85892 -3.83664 2.57272
Ar 0.0506255 0.101064 -2.62705
Ar 3.87877 -0.205381 -2.55512
Ar -3.79717 0.176439 -2.62677
Ar 0.0220383 3.72697 -2.58082
Ar -0.0706233 -3.63732 -2.70506
Ar 3.71452 3.63846 -2.65868
Ar -3.64034 3.86855 -2.77644
Ar -3.82272 -4.01037 -2.83047
Ar 4.16478 -4.01583 -2.6096
Ar 1.68772 2.08816 5.34771
Ar -1.91535 1.84179 5.27808
Ar -1.86404 -1.8625 5.51615
Ar 1.89475 -1.86306 5.37253
Ar 1.76285 1.90492 -5.44866
Ar -1.89276 1.93391 -5.41902
Ar -1.97958 -1.74866 -5.27151
Ar 1.9483 -1.89638 -5.24189
38
Atoms. Timestep: 160000
Ar 1.82432 1.78982 -0.116901
Ar 5.59527 1.84055 0.175006
Ar 1.85429 5.7024 0.117133
Ar -1.84949 1.90782 -0.0185987
Ar -5.58707 1.86237 -0.0840199
Ar -1.75228 5.50444 -0.063918
Ar -2.05787 -1.91792 0.0230497
Ar -5.77525 -1.95165 0.378098
Ar -1.69968 -5.54123 -0.0959205
Ar 1.84005 -1.89073 0.0434787
Ar 5.47423 -1.80847 0.112855
Ar 1.91856 -5.69579 0.0440704
Ar -0.101835 0.0188638 2.61824
Ar 3.50215 -0.147419 2.70423
Ar -3.76396 0.0159603 2.73148
Ar 0.131878 3.69424 2.65122
Ar 0.125685 -3.653 2.62753
Ar 3.76351 3.7963 2.96808
Ar -3.70603 3.90991 2.59858
Ar -3.66614 -3.77778 2.80678
Ar 3.79744 -3.96127 2.52683
Ar -0.202271 -0.120169 -2.69272
Ar 3.66843 -0.0199988 -2.63748
Ar -3.81301 -0.0400509 -2.87414
Ar 0.0157038 3.70982 -2.73779
Ar -0.167109 -3.75049 -2.83056
Ar 3.70178 3.67958 -2.5327
Ar -3.69166 3.88357 -2.83018
Ar -3.79419 -3.80298 -2.83115
Ar 3.6936 -3.75104 -2.57787
Ar 1.82352 1.90994 5.34859
Ar -1.93852 2.35391 5.42347
Ar -1.60698 -1.72584 5.59795
Ar 2.1269 -2.01962 5.51434
Ar 2.11859 2.09817 -5.44363
Ar -2.13486 1.74797 -5.62321
Ar -1.72788 -1.96636 -5.54689
Ar 2.06218 -1.88281 -5.47332
38
Atoms. Timestep: 170000
Ar 1.83031 1.82797 0.186336
Ar 5.53848 1.52882 -0.141331
Ar 2.03636 5.71684 -0.109662
Ar -1.82812 1.86185 0.199199
Ar -5.47097 2.34509 0.012187
Ar -2.18081 5.48015 -0.184051
Ar -1.63303 -1.83323 -0.141111
Ar -5.66479 -1.54831 -0.0373204
Ar -1.82453 -5.76879 0.169523
Ar 2.03502 -1.69456 -0.0747983
Ar 5.81844 -2.17744 -0.33388
Ar 1.91493 -5.72529 0.20276
Ar -0.0439151 -0.252886 2.92627
Ar 3.64629 0.0983082 2.74708
Ar -3.73052 0.270222 2.6134
Ar -0.0850148 3.58421 3.00246
Ar -0.0937025 -3.71968 2.97086
Ar 3.44441 4.11109 2.90499
Ar -3.80729 4.33721 2.791
Ar -3.69574 -3.42269 2.63923
Ar 3.87734 -3.91691 2.66457
Ar -0.0468189 0.0303163 -3.02331
Ar 3.54469 0.141904 -3.0194
Ar -3.53767 0.0838067 -2.61103
Ar -0.20072 3.63833 -2.76277
Ar 0.084163 -3.75835 -2.59749
Ar 3.38474 3.81951 -2.50415
Ar -3.8259 3.74694 -3.39321
Ar -3.76532 -3.81426 -2.29835
Ar 4.0293 -3.9984 -2.96505
Ar 1.79902 1.6169 5.9204
Ar -2.01739 1.87688 5.58922
Ar -2.07222 -1.98129 5.66418
Ar 1.95052 -2.14288 5.37148
Ar 2.20215 2.37387 -5.56687
Ar -1.72599 1.61659 -5.90267
Ar -1.99947 -2.17583 -5.45291
Ar 2.11577 -2.17502 -5.45578
38
Atoms. Timestep: 180000
Ar 1.76944 1.90857 0.1617
Ar 6.1044 1.5786 0.11187
Ar 1.5968 5.73393 0.153735
Ar -1.84355 1.93226 -0.0626815
Ar -5.46467 2.05182 -0.227194
Ar -2.28614 5.63736 -0.49919
Ar -1.99736 -1.82981 0.11176
Ar -5.82595 -1.96775 0.0505985
Ar -1.96677 -5.61398 -0.0590512
Ar 1.80411 -2.03985 0.0848864
Ar 5.75583 -2.18493 0.0493345
Ar 1.81278 -5.6951 -0.102547
Ar -0.16721 0.286961 2.75384
Ar 3.5407 -0.244274 2.62506
Ar -3.74125 0.126276 2.51985
Ar 0.0101075 3.86536 2.62374
Ar 0.0599991 -3.93912 2.76211
Ar 4.29027 4.32743 2.36349
Ar -3.61862 3.91002 2.79212
Ar -4.11149 -4.13802 2.92136
Ar 3.93773 -4.06517 2.62459
Ar 0.0937789 -0.10346 -2.46642
Ar 3.8551 0.0191421 -2.47435
Ar -3.60829 -0.0697627 -2.74867
Ar -0.113619 3.62692 -2.81885
Ar -0.0153407 -3.80268 -2.68524
Ar 3.97132 3.8018 -2.03349
Ar -3.82123 3.63393 -3.09661
Ar -3.93802 -3.87681 -2.42082
Ar 3.63167 -3.64909 -2.98516
Ar 2.10141 2.26184 4.97725
Ar -1.54496 1.80873 5.75015
Ar -2.02443 -2.09939 5.23954
Ar 1.55027 -1.48392 5.48736
Ar 2.06128 2.22933 -5.30298
Ar -1.6687 1.60235 -5.52741
Ar -1.95078 -2.07949 -5.27603
Ar 1.76337 -1.45903 -5.37765
38
Atoms. Timestep: 190000
Ar 2.13626 1.70257 -0.0950472
Ar 5.62499 2.07814 0.245975
Ar 1.74156 5.45914 -0.105029
Ar -1.6333 1.85485 -0.308041
Ar -5.75317 1.93442 -0.066918
Ar -2.21702 5.69948 0.0491404
Ar -1.76984 -1.82106 -0.118515
Ar -5.71971 -1.95826 -0.0266409
Ar -1.94054 -5.50022 0.348556
Ar 1.88254 -2.02888 0.0371072
Ar 5.56556 -1.87319 -0.0612353
Ar 1.89978 -5.62541 -0.0149621
Ar -0.0671976 0.227601 2.40836
Ar 3.72239 -0.0798547 2.69462
Ar -3.5648 -0.00865744 2.71597
Ar -0.255267 3.99834 2.69482
Ar 0.0318963 -3.50842 2.83016
Ar 3.79484 4.18599 2.61908
Ar -4.09787 3.70377 2.65368
Ar -4.03646 -3.74032 2.80358
Ar 3.88575 -4.06372 2.59114
Ar -0.0120509 -0.0555221 -2.83534
Ar 3.92583 -0.220447 -2.73791
Ar -3.77816 0.0428161 -2.65545
Ar -0.00446651 4.22226 -2.94609
Ar 0.113155 -3.62906 -2.74429
Ar 3.97873 3.67882 -2.69261
Ar -4.01616 4.09343 -2.68999
Ar -3.839 -4.1047 -2.61389
Ar 3.9685 -3.88422 -2.68654
Ar 1.72432 1.38061 5.33134
Ar -1.97571 2.02782 5.63748
Ar -1.79465 -1.6447 5.48727
Ar 2.16307 -2.26932 5.67645
Ar 2.09958 1.7148 -5.30994
Ar -1.98834 1.91516 -5.28806
Ar -1.79753 -1.91284 -5.43353
Ar 2.00453 -1.9902 -5.39469
38
Atoms. Timestep: 200000
Ar 1.68213 1.77987 0.0780544
Ar 6.00036 1.8849 -0.143392
Ar 1.26677 6.03774 -0.162919
Ar -1.92854 1.83196 -0.138726
Ar -5.59764 2.4099 -0.112212
Ar -2.45723 5.68823 -0.228882
Ar -1.84651 -1.76428 0.223055
Ar -5.8287 -1.4289 -0.064853
Ar -2.05433 -6.31707 0.160915
Ar 1.95493 -1.94884 0.0983592
Ar 5.78445 -1.92977 0.00539988
Ar 2.2014 -6.01188 -0.025921
Ar 0.00378731 -0.342359 2.87427
Ar 3.93799 0.153483 2.45787
Ar -3.8004 0.0861112 2.92234
Ar -0.139322 3.54576 2.73171
Ar -0.0685693 -4.10276 2.41492
Ar 3.59016 4.26821 2.25919
Ar -3.96574 3.86899 3.13332
Ar -4.0185 -3.74629 2.25751
Ar 3.67066 -3.5598 2.81848
Ar 0.349476 -0.159863 -2.79982
Ar 3.89273 0.00143904 -2.77302
Ar -3.64977 0.160272 -2.67591
Ar 0.0107483 3.78158 -2.61972
Ar -0.172732 -4.05116 -2.35725
Ar 3.58759 3.69525 -2.35394
Ar -3.76179 3.89458 -3.14398
Ar -3.78623 -3.7518 -2.01892
Ar 3.541 -3.56145 -2.87793
Ar 2.2076 2.00948 5.07078
Ar -1.59044 1.8327 5.39269
Ar -2.05744 -2.35888 5.31546
Ar 1.9776 -1.78303 5.54303
Ar 2.24289 2.23415 -5.31069
Ar -1.26545 1.4666 -5.44932
Ar -2.00119 -2.12513 -4.82945
Ar 2.09024 -1.68696 -5.67053
38
Atoms. Timestep: 210000
Ar 1.75999 1.71418 -0.0188323
Ar 5.68969 1.57915 -0.260975
Ar 1.86134 5.60737 0.0490082
Ar -1.82822 1.83922 -0.0544985
Ar -5.7486 1.81655 -0.123024
Ar -1.98857 5.67329 -0.100109
Ar -1.73506 -1.91634 0.11368
Ar -5.34391 -2.14763 0.084109
Ar -1.85008 -5.6721 -0.0662919
Ar 1.98743 -1.98284 -0.107877
Ar 5.63494 -2.03874 -0.20916
Ar 1.88677 -5.59164 0.0035177
Ar -0.0626215 -0.0698575 2.83019
Ar 3.94422 0.0151485 2.82303
Ar -3.64611 0.0908363 2.79303
Ar -0.0947294 3.68559 2.5603
Ar 0.0674023 -3.69599 2.85737
Ar 3.821 3.81394 2.59497
Ar -3.8401 4.00983 2.80367
Ar -3.53498 -3.73721 2.76192
Ar 3.61058 -3.9058 2.95986
Ar 0.0501028 0.0575086 -2.83185
Ar 3.73213 -0.0282466 -2.81162
Ar -3.7493 -0.0661133 -2.72133
Ar -0.040269 3.81435 -2.71055
Ar 0.0453056 -3.71595 -2.64666
Ar 3.74012 3.82019 -2.65041
Ar -3.79187 3.83227 -2.66301
Ar -3.87096 -4.19076 -2.68003
Ar 3.84066 -3.86216 -2.86781
Ar 1.59278 2.19369 5.43117
Ar -1.99707 2.1067 5.46572
Ar -1.95228 -1.64191 5.71291
Ar 1.91991 -1.75011 5.56099
Ar 1.79857 1.96137 -5.3592
Ar -2.07962 2.03301 -5.63653
Ar -1.90523 -1.7697 -5.48575
Ar 2.07864 -1.8801 -5.39993
38
Atoms. Timestep: 220000
Ar 1.87618 1.75384 0.00496044
Ar 5.79289 1.8523 0.106944
Ar 1.86354 5.55564 -0.151377
Ar -1.9147 1.91715 -0.0301989
Ar -5.66772 1.98497 0.089355
Ar -1.87185 5.62425 -0.0594987
Ar -1.79609 -1.77304 0.102583
Ar -5.56237 -1.67404 -0.102573
Ar -1.68361 -5.63752 0.181466
Ar 1.9026 -1.84623 -0.0200597
Ar 5.62354 -2.05771 -0.0154343
Ar 2.30291 -5.65663 -0.201262
Ar -0.0053995 0.119035 2.68214
Ar 3.71911 0.0212452 2.78205
Ar -3.98541 0.118136 2.81702
Ar -0.119707 3.82176 2.67127
Ar 0.104945 -3.89751 2.69919
Ar 3.62178 3.83757 2.55921
Ar -3.94619 3.77637 2.83858
Ar -3.74658 -3.56304 2.65219
Ar 3.72519 -3.69805 2.80302
Ar -0.000634664 -0.104582 -2.67735
Ar 3.56013 -0.0689521 -2.70904
Ar -3.63932 -0.0629126 -2.80705
Ar 0.0764361 3.72502 -2.67761
Ar -0.0770243 -3.7543 -2.67626
Ar 3.79977 3.57563 -2.5558
Ar -3.57169 3.66234 -2.71378
Ar -3.8337 -3.73934 -2.7357
Ar 3.66464 -3.66809 -2.90492
Ar 1.86617 2.14887 5.57074
Ar -2.00261 1.9035 5.64066
Ar -1.76255 -1.88848 5.38988
Ar 1.90656 -1.77487 5.62453
Ar 1.74312 1.86337 -5.51397
Ar -1.77656 1.70119 -5.48246
Ar -2.00841 -2.18211 -5.67948
Ar 1.82462 -1.91378 -5.50196
38
Atoms. Timestep: 230000
Ar 1.79074 1.81512 -0.0233221
Ar 5.451 1.98792 -0.144548
Ar 1.72611 5.745 -0.0751475
Ar -1.86006 1.81851 -0.0855279
Ar -5.64017 2.10238 0.0281724
Ar -1.97248 5.49071 -0.205124
Ar -1.92214 -1.91525 0.108125
Ar -5.65492 -1.83348 -0.00800003
Ar -2.0641 -5.58428 -0.00376063
Ar 1.85465 -1.85484 0.0277572
Ar 5.826 -1.72987 -0.0207598
Ar 1.62155 -5.77194 0.0109766
Ar -0.0277574 -0.124252 2.74212
Ar 3.71071 0.261504 2.61986
Ar -3.83722 -0.0370184 2.65947
Ar 0.271398 3.62409 2.66055
Ar 0.107542 -3.85871 2.77989
Ar 3.88926 4.01156 2.79353
Ar -3.67483 3.62669 2.75398
Ar -4.07833 -3.79628 2.69769
Ar 3.97589 -3.72352 2.52327
Ar 0.0650235 0.143059 -2.69144
Ar 3.82039 -0.0587847 -2.69306
Ar -3.64362 -0.130878 -2.61833
Ar 0.118107 3.75656 -2.92579
Ar -0.056026 -3.77244 -2.51915
Ar 3.60282 3.80919 -2.66302
Ar -4.02088 3.63518 -2.85651
Ar -3.91614 -3.78996 -2.74721
Ar 3.80458 -3.90242 -2.57275
Ar 2.03752 1.92573 5.70449
Ar -1.7792 1.90362 5.37678
Ar -2.04268 -1.88706 5.42026
Ar 2.02494 -1.75381 5.36975
Ar 2.13365 1.75407 -5.30868
Ar -1.79114 2.00931 -5.62815
Ar -1.8261 -1.87144 -5.2393
Ar 1.9779 -2.02297 -5.24708
38
Atoms. Timestep: 240000
Ar 1.89879 1.84709 0.0254069
Ar 5.70585 1.811 0.0190478
Ar 1.73899 5.81785 -0.0648388
Ar -1.82628 1.76136 -0.0486172
Ar -5.77482 2.12183 -0.114183
Ar -2.07232 5.36671 -0.105151
Ar -1.78779 -1.84784 0.120703
Ar -5.59374 -1.61215 0.0111291
Ar -1.69992 -5.69323 0.0648195
Ar 1.97699 -1.79371 0.0695732
Ar 5.66641 -1.96971 0.0358106
Ar 2.05176 -5.65035 -0.254453
Ar 0.0285123 0.0309251 2.77577
Ar 3.77902 -0.0292824 2.70145
Ar -3.92034 0.102841 2.62503
Ar -0.00111208 3.82282 2.63588
Ar -0.0367416 -3.76474 2.83643
Ar 3.81118 4.06487 2.37748
Ar -3.70971 3.88422 2.88154
Ar -3.92607 -3.85156 2.66854
Ar 3.63018 -3.79152 2.7958
Ar 0.0479899 -0.183687 -2.62112
Ar 3.82802 -0.0288843 -2.5601
Ar -3.72806 -0.0651358 -2.7392
Ar 0.0786486 3.64086 -2.69262
Ar -0.0290393 -3.825 -2.60832
Ar 3.75444 3.82901 -2.50566
Ar -3.80427 3.56335 -2.86075
Ar -3.93343 -3.87545 -2.49668
Ar 3.79637 -3.72512 -2.87378
Ar 2.0121 1.95327 5.2228
Ar -1.76837 1.97529 5.3411
Ar -2.17299 -1.85601 5.25564
Ar 1.78691 -1.90316 5.43932
Ar 1.98341 2.09556 -5.2516
Ar -1.72465 1.62891 -5.32145
Ar -1.98557 -2.10528 -5.25407
Ar 1.92165 -1.7449 -5.53066
38
Atoms. Timestep: 250000
Ar 1.73351 1.82439 -0.0552944
Ar 5.71195 1.60981 0.114596
Ar 1.80717 5.66776 -0.0165464
Ar -1.78396 1.86914 0.0702269
Ar -5.74427 1.96497 -0.0553634
Ar -1.89973 5.85149 -0.0657979
Ar -1.85153 -1.83216 0.049324
Ar -5.60449 -1.81325 0.000949358
Ar -1.67633 -5.80005 -0.0690076
Ar 1.86322 -1.833 -0.002897
Ar 5.58494 -2.22217 0.0740118
Ar 2.11847 -5.5739 0.230543
Ar -0.040758 0.0359776 2.65312
Ar 3.60037 -0.0115177 2.60683
Ar -3.68829 0.0930097 2.67671
Ar -0.119886 3.78223 2.56141
Ar 0.127502 -3.75894 2.72635
Ar 3.8498 3.61264 2.47585
Ar -3.84616 3.89707 2.74262
Ar -3.7216 -3.80998 2.51534
Ar 3.82832 -3.57933 3.0268
Ar -0.0434978 -0.0391566 -2.73975
Ar 3.84349 -0.105025 -2.76158
Ar -3.81333 -0.0267816 -2.68927
Ar 0.0127511 3.72936 -2.69125
Ar 0.0841861 -3.80739 -2.6488
Ar 3.67825 3.59673 -2.59068
Ar -3.83989 3.88753 -2.64323
Ar -3.61599 -3.78317 -2.54242
Ar 3.67843 -3.82685 -2.82993
Ar 1.74153 2.08019 5.26445
Ar -1.93357 1.87675 5.36794
Ar -1.838 -2.01763 5.23229
Ar 1.85961 -1.60331 5.588
Ar 1.90165 1.94458 -5.55308
Ar -1.93705 1.90332 -5.2527
Ar -1.82592 -1.92844 -5.38393
Ar 1.8011 -1.85392 -5.38584
38
Atoms. Timestep: 260000
Ar 1.97121 1.78576 0.0446579
Ar 5.63203 2.01235 -0.0737337
Ar 1.73687 5.47439 -0.0232289
Ar -1.93644 2.00149 0.050754
Ar -5.67059 2.0279 -0.0116562
Ar -1.92949 5.72598 0.151089
Ar -1.7793 -1.84143 -0.155724
Ar -5.56404 -1.79266 -0.0393446
Ar -1.88205 -5.66907 -0.0662247
Ar 1.91855 -1.94606 0.0198365
Ar 5.75594 -1.77961 0.251741
Ar 1.96001 -5.73209 0.0306296
Ar 0.0357688 -0.0555364 2.55165
Ar 3.73506 -0.0461636 2.74148
Ar -3.72002 0.117731 2.6078
Ar -0.0487563 3.66438 2.66084
Ar -0.0276978 -3.82187 2.66797
Ar 3.74184 3.66235 2.6903
Ar -4.037 3.899 2.66921