38
Atoms. Timestep: 0
Ar 1.668 1.873 0
Ar 5.651 1.903 0.003
Ar 1.878 5.656 -0.01
Ar -1.867 1.863 -0.007
Ar -5.65 1.873 -0.014
Ar -1.898 5.645 -0.014
Ar -1.857 -1.873 0
Ar -5.64 -1.903 -0.003
Ar -1.867 -5.656 0.01
Ar 1.878 -1.863 0.007
Ar 5.661 -1.873 0.014
Ar 1.909 -5.645 0.014
Ar 0.002 0.007 2.642
Ar 3.751 0.017 2.659
Ar -3.75 -0.003 2.646
Ar -0.008 3.756 2.646
Ar 0.012 -3.745 2.659
Ar 3.761 3.786 2.656
Ar -3.778 3.766 2.646
Ar -3.757 -3.773 2.663
Ar 3.781 -3.752 2.673
Ar 0.009 -0.007 -2.642
Ar 3.761 0.003 -2.646
Ar -3.74 -0.017 -2.659
Ar -0.002 3.746 -2.659
Ar 0.019 -3.756 -2.646
Ar 3.768 3.773 -2.663
Ar -3.771 3.752 -2.673
Ar -3.75 -3.786 -2.656
Ar 3.788 -3.766 -2.646
Ar 1.871 1.897 5.329
Ar -1.888 1.886 5.325
Ar -1.878 -1.873 5.332
Ar 1.881 -1.863 5.339
Ar 1.888 1.873 -5.332
Ar -1.871 1.863 -5.339
Ar -1.861 -1.897 -5.329
Ar 1.898 -1.886 -5.325
38
Atoms. Timestep: 10000
Ar 1.91177 1.85419 0.0209842
Ar 5.68932 1.84493 0.0740593
Ar 1.92468 5.75277 -0.0553421
Ar -1.91141 1.84991 -0.0398085
Ar -5.66176 1.81876 -0.0133371
Ar -1.88603 5.69978 -0.0182078
Ar -1.84759 -1.88473 -0.0257907
Ar -5.68852 -1.98117 -0.028089
Ar -1.94561 -5.75466 0.0259344
Ar 1.89148 -1.86058 0.0484683
Ar 5.63685 -1.8689 0.0230298
Ar 1.96098 -5.63088 -0.0301504
Ar 0.0310145 -0.0355377 2.55485
Ar 3.75448 0.0572028 2.72678
Ar -3.77633 0.00645606 2.64103
Ar -0.0427706 3.75127 2.51845
Ar 0.0717144 -3.77947 2.68548
Ar 3.72931 3.80429 2.63882
Ar -3.77727 3.82985 2.59198
Ar -3.7233 -3.70755 2.63196
Ar 3.85202 -3.7131 2.66678
Ar -0.0146051 0.0650092 -2.63526
Ar 3.7646 -0.0386416 -2.57917
Ar -3.78586 -0.0733475 -2.64261
Ar -0.0222693 3.73231 -2.64584
Ar 0.0080623 -3.72264 -2.62638
Ar 3.78455 3.73859 -2.63134
Ar -3.83258 3.77211 -2.57098
Ar -3.81523 -3.80837 -2.70184
Ar 3.78663 -3.7467 -2.66418
Ar 1.86261 1.9744 5.31563
Ar -1.85372 1.82729 5.23548
Ar -1.86923 -1.88988 5.31149
Ar 1.86965 -1.91912 5.29239
Ar 1.9389 1.90883 -5.2765
Ar -1.92346 1.90242 -5.33255
Ar -1.95012 -1.8921 -5.24056
Ar 1.86102 -1.88198 -5.24569
38
Atoms. Timestep: 20000
Ar 1.82582 1.84954 -0.0442249
Ar 5.54425 2.03887 -0.0364666
Ar 1.89653 5.59212 -0.0410612
Ar -1.87582 1.7702 0.00257929
Ar -5.62828 2.01721 -0.0335031
Ar -1.92633 5.57963 -0.060665
Ar -1.89304 -1.92026 0.0474686
Ar -5.65542 -1.83814 0.015925
Ar -2.01677 -5.60663 0.00695893
Ar 1.76353 -1.85378 0.0274715
Ar 5.79082 -1.78993 -0.0509059
Ar 1.86886 -5.60187 -0.0452144
Ar 0.0282136 -0.0227684 2.62346
Ar 3.65867 0.01646 2.68656
Ar -3.70331 0.0304102 2.73816
Ar -0.0680647 3.73979 2.65845
Ar -0.027646 -3.86217 2.70621
Ar 3.6467 3.77837 2.70038
Ar -3.84854 3.85964 2.62646
Ar -3.77374 -3.78817 2.84414
Ar 3.95982 -3.7008 2.54041
Ar -0.0160067 -0.0578783 -2.61817
Ar 3.83939 0.0397466 -2.72855
Ar -3.75658 0.0402696 -2.60673
Ar 0.0272672 3.64964 -2.6485
Ar 0.0312244 -3.84241 -2.69392
Ar 3.88273 3.86567 -2.7556
Ar -3.81103 3.88221 -2.81348
Ar -3.8511 -3.74029 -2.66292
Ar 3.82315 -3.68785 -2.61725
Ar 1.75007 1.77789 5.47121
Ar -1.95024 1.88996 5.37698
Ar -1.75205 -1.867 5.43978
Ar 2.02445 -1.96567 5.19827
Ar 1.93443 1.82884 -5.34945
Ar -1.8856 1.73786 -5.29935
Ar -1.8485 -1.94794 -5.31041
Ar 1.99412 -1.88976 -5.2945
38
Atoms. Timestep: 30000
Ar 1.85061 1.83723 0.0962267
Ar 5.62888 1.95589 -0.0475164
Ar 1.92727 5.64257 -0.0804613
Ar -1.87784 1.95194 0.0617252
Ar -5.65643 1.84597 -0.0323112
Ar -1.90608 5.75641 0.0610142
Ar -1.85712 -1.87717 -0.080091
Ar -5.53705 -2.06522 -0.0748747
Ar -1.95151 -5.77483 0.0681522
Ar 1.85205 -1.89928 0.0609401
Ar 5.72255 -1.76396 -0.0248982
Ar 1.91556 -5.6562 -0.0313012
Ar -0.00928192 -0.018121 2.7225
Ar 3.75295 -0.00452303 2.71353
Ar -3.82007 0.0114346 2.64042
Ar -0.0207234 3.87941 2.66791
Ar 0.0375877 -3.81023 2.68142
Ar 3.76304 3.79586 2.65196
Ar -3.8236 3.85485 2.63445
Ar -3.74861 -3.8616 2.77288
Ar 3.84471 -3.77305 2.61645
Ar -0.0359278 0.0102181 -2.64941
Ar 3.70786 -0.0444012 -2.6468
Ar -3.79371 -0.0131784 -2.65533
Ar -0.101864 3.76387 -2.59408
Ar 0.0728195 -3.88493 -2.66961
Ar 3.71909 3.75461 -2.83665
Ar -3.79523 3.7188 -2.61406
Ar -3.76329 -3.81083 -2.80926
Ar 3.91926 -3.7854 -2.62515
Ar 1.93539 1.91855 5.26075
Ar -1.79434 1.91776 5.45826
Ar -1.93851 -1.73431 5.34895
Ar 1.83974 -1.89128 5.47744
Ar 1.83827 1.71155 -5.42457
Ar -1.8896 2.02377 -5.35049
Ar -1.91861 -1.66566 -5.40008
Ar 1.91375 -2.01552 -5.34803
38
Atoms. Timestep: 40000
Ar 1.8941 1.79809 0.00903042
Ar 5.79689 1.8954 -0.0396225
Ar 1.9034 5.60141 0.025095
Ar -1.91854 1.80251 -0.00590088
Ar -5.73347 1.75172 -0.047037
Ar -1.80692 5.76868 -0.142706
Ar -1.89101 -1.83574 0.121517
Ar -5.79448 -1.942 -0.0443558
Ar -1.92241 -5.68262 0.145481
Ar 1.90681 -1.89163 -0.0172357
Ar 5.67055 -1.81288 0.00987049
Ar 1.92145 -5.71951 -0.0137255
Ar 0.167433 -0.0102551 2.71522
Ar 3.83921 0.0513414 2.67962
Ar -3.84642 -0.0326708 2.60599
Ar -0.023886 3.64403 2.59807
Ar 0.0118606 -3.71296 2.77199
Ar 3.74611 3.72492 2.69164
Ar -3.76205 3.90966 2.49773
Ar -3.83131 -3.79589 2.68719
Ar 3.88773 -3.7381 2.54784
Ar -0.0271895 -0.0079689 -2.58122
Ar 3.85758 0.0809251 -2.72215
Ar -3.70422 -0.128944 -2.7297
Ar -0.0113957 3.67911 -2.54163
Ar -0.0660207 -3.65733 -2.58406
Ar 3.80967 3.87974 -2.69787
Ar -3.77902 3.68279 -2.65029
Ar -3.83345 -3.87305 -2.60959
Ar 3.65957 -3.66378 -2.69317
Ar 1.92252 1.83087 5.38554
Ar -2.03402 1.95257 5.25869
Ar -1.91219 -1.70555 5.38773
Ar 2.10517 -1.96724 5.31635
Ar 1.8351 1.97147 -5.2848
Ar -1.92766 1.83628 -5.36115
Ar -1.90796 -1.91384 -5.38191
Ar 1.80047 -1.76855 -5.30646
38
Atoms. Timestep: 50000
Ar 1.82523 1.88829 -0.0630522
Ar 5.62521 2.00855 -0.0720611
Ar 1.81501 5.71477 0.0135211
Ar -1.86265 1.9357 -0.0458615
Ar -5.65103 1.85099 0.0141761
Ar -1.92042 5.74543 0.0195019
Ar -1.87451 -1.96528 0.0381363
Ar -5.67552 -1.82963 0.0153716
Ar -1.96198 -5.67972 -0.00615439
Ar 1.8898 -1.88027 0.0271607
Ar 5.78709 -1.85122 0.155514
Ar 1.79675 -5.85865 0.0636936
Ar -0.0104467 -0.0555078 2.65751
Ar 3.78006 0.0825797 2.63962
Ar -3.83944 -0.0290961 2.62457
Ar -0.0440745 3.746 2.6547
Ar -0.0108076 -3.82111 2.73462
Ar 3.74607 3.92698 2.5503
Ar -3.72488 3.67831 2.72037
Ar -3.84873 -3.74147 2.57516
Ar 3.8047 -3.77142 2.56602
Ar -0.0270344 0.0339346 -2.57518
Ar 3.83488 -0.0187372 -2.65273
Ar -3.77801 -0.0226354 -2.62812
Ar 0.0295865 3.82358 -2.78479
Ar -0.0408897 -3.7859 -2.64146
Ar 3.72521 3.80545 -2.69428
Ar -3.78782 3.79844 -2.68925
Ar -3.84331 -3.83655 -2.65953
Ar 3.82113 -3.71675 -2.48847
Ar 1.91901 1.88928 5.16747
Ar -1.86204 1.82909 5.38876
Ar -1.77832 -1.90624 5.35516
Ar 2.03055 -1.91669 5.29799
Ar 1.91973 1.81271 -5.42005
Ar -1.80218 1.87478 -5.36058
Ar -1.87426 -1.86272 -5.23975
Ar 1.87034 -1.89429 -5.258
38
Atoms. Timestep: 60000
Ar 1.88825 1.91545 0.0237385
Ar 5.67403 1.82742 -0.0255481
Ar 1.86983 5.6685 -0.0505271
Ar -1.86331 1.88283 0.0691456
Ar -5.69986 1.83251 0.0216338
Ar -1.88121 5.71858 0.00716611
Ar -1.84934 -1.79179 -0.0106237
Ar -5.63306 -2.01123 0.0110144
Ar -1.73929 -5.614 0.0728539
Ar 1.91386 -1.92097 0.0335934
Ar 5.65269 -1.93891 -0.0625636
Ar 1.95897 -5.60653 -0.0341754
Ar 0.0298219 0.0399714 2.65973
Ar 3.81504 -0.0531543 2.65567
Ar -3.7206 0.00314133 2.62628
Ar -0.0364596 3.85267 2.6613
Ar 0.0959227 -3.71214 2.69001
Ar 3.72992 3.77728 2.67036
Ar -3.83238 3.78929 2.65355
Ar -3.81739 -3.80835 2.64423
Ar 3.81074 -3.80633 2.85567
Ar -0.00408372 -0.0228558 -2.68047
Ar 3.65068 -0.0157038 -2.68749
Ar -3.72868 0.00287924 -2.69049
Ar -0.0359186 3.80177 -2.65295
Ar 0.0218475 -3.78511 -2.77633
Ar 3.71757 3.66451 -2.70649
Ar -3.74312 3.77532 -2.56127
Ar -3.69845 -3.78694 -2.66868
Ar 3.73372 -3.80006 -2.73799
Ar 1.83361 1.92186 5.48401
Ar -1.87607 1.92029 5.30466
Ar -1.88513 -1.82986 5.31061
Ar 1.80706 -1.80718 5.43304
Ar 1.85152 1.84413 -5.43825
Ar -1.90974 1.86756 -5.33529
Ar -1.93105 -1.94442 -5.37356
Ar 1.83205 -1.84945 -5.3956
38
Atoms. Timestep: 70000
Ar 1.84387 1.86991 -0.00264096
Ar 5.58252 1.8817 0.0252614
Ar 1.76109 5.65705 0.0429045
Ar -1.98505 1.94078 -0.0189064
Ar -5.67699 1.96338 0.0170487
Ar -1.99968 5.70024 -0.0173149
Ar -1.8371 -1.8401 0.00753976
Ar -5.67022 -1.84329 -0.0295184
Ar -1.8579 -5.62794 0.0330915
Ar 1.90961 -1.85162 -0.0128563
Ar 5.68574 -1.93927 0.0515642
Ar 1.86628 -5.61403 0.0358454
Ar 0.0315453 0.0711222 2.6459
Ar 3.77756 -0.101433 2.66397
Ar -3.77034 -0.00155692 2.71194
Ar -0.0702875 3.71102 2.66139
Ar 0.00094144 -3.67392 2.62471
Ar 3.78955 3.77506 2.69247
Ar -3.75574 3.78074 2.70635
Ar -3.72056 -3.774 2.71633
Ar 3.89097 -3.86166 2.58483
Ar 0.0718765 -0.0120673 -2.60646
Ar 3.82509 -0.0567124 -2.72496
Ar -3.61925 -0.0219179 -2.64774
Ar -0.0956661 3.73413 -2.64009
Ar 0.0275253 -3.7326 -2.63355
Ar 3.73248 3.81185 -2.64588
Ar -3.87038 3.79501 -2.89539
Ar -3.76319 -3.73517 -2.58414
Ar 3.75777 -3.80754 -2.62028
Ar 1.87963 1.80963 5.36146
Ar -1.8597 1.88356 5.37123
Ar -1.75241 -1.81879 5.43929
Ar 1.93785 -1.94134 5.21152
Ar 1.8967 1.92536 -5.39015
Ar -1.90452 1.7802 -5.40749
Ar -1.86335 -1.94314 -5.38421
Ar 1.80575 -1.89166 -5.34306
38
Atoms. Timestep: 80000
Ar 1.89733 1.89123 0.0383496
Ar 5.70616 1.92937 0.0494739
Ar 1.83459 5.65524 -0.0698154
Ar -1.79537 1.94856 -0.0109924
Ar -5.60312 1.81992 0.00720786
Ar -1.90159 5.62837 0.0571616
Ar -1.89241 -1.89749 0.00060029
Ar -5.67838 -1.92385 0.0560362
Ar -1.98323 -5.67076 0.00809597
Ar 1.85502 -1.86034 0.0100833
Ar 5.60424 -1.82106 0.0302366
Ar 1.85932 -5.68318 -0.0291969
Ar 0.0215465 -0.00443926 2.55481
Ar 3.78816 0.0810001 2.70471
Ar -3.65555 0.0338237 2.59828
Ar 0.0480927 3.76297 2.60325
Ar 0.0041999 -3.80928 2.62367
Ar 3.76881 3.81496 2.61244
Ar -3.77 3.75756 2.70537
Ar -3.72422 -3.79266 2.69279
Ar 3.73144 -3.74683 2.60816
Ar 0.0223353 0.0389924 -2.67817
Ar 3.74861 0.065582 -2.64094
Ar -3.73465 -0.0105531 -2.59521
Ar -0.0295545 3.771 -2.62971
Ar -0.0170514 -3.80808 -2.61702
Ar 3.71863 3.75265 -2.69609
Ar -3.82428 3.80772 -2.61312
Ar -3.83431 -3.75564 -2.66315
Ar 3.80116 -3.80424 -2.61453
Ar 1.94398 1.91613 5.31555
Ar -1.87566 1.82402 5.33668
Ar -1.87408 -1.90013 5.21929
Ar 1.87664 -1.8921 5.31065
Ar 1.79215 1.84049 -5.41373
Ar -1.89707 1.82277 -5.31927
Ar -1.84792 -1.88352 -5.32346
Ar 1.91805 -1.8972 -5.22848
38
Atoms. Timestep: 90000
Ar 1.8588 1.90468 -0.062368
Ar 5.61777 1.86289 -0.0126066
Ar 1.90065 5.66838 -0.0277415
Ar -1.83119 1.80361 0.0424947
Ar -5.62133 1.8521 0.019993
Ar -1.83442 5.6467 -0.0228636
Ar -1.81614 -1.95104 0.046975
Ar -5.63854 -1.91416 0.049922
Ar -1.78114 -5.71295 -0.0244996
Ar 1.86144 -1.81856 -0.00994575
Ar 5.60023 -1.93328 0.00444592
Ar 1.90776 -5.63458 0.0727194
Ar 0.0245127 -0.026772 2.70628
Ar 3.77677 0.0347831 2.6462
Ar -3.78332 -0.0016667 2.63646
Ar -0.0298678 3.74389 2.57692
Ar -0.0234688 -3.77866 2.71498
Ar 3.72624 3.75108 2.59302
Ar -3.82966 3.78597 2.59184
Ar -3.80025 -3.84673 2.59096
Ar 3.7521 -3.74753 2.66562
Ar 0.0179935 -0.0294393 -2.6412
Ar 3.75544 0.0284873 -2.67284
Ar -3.75849 -0.0429357 -2.56539
Ar 0.0244917 3.73978 -2.63945
Ar 0.0366628 -3.75568 -2.61663
Ar 3.86206 3.80628 -2.68087
Ar -3.76696 3.77463 -2.5866
Ar -3.79573 -3.78767 -2.61783
Ar 3.73397 -3.66669 -2.74057
Ar 1.9197 1.88126 5.31763
Ar -1.87081 1.94631 5.3613
Ar -1.96041 -1.86868 5.28068
Ar 1.90927 -1.83097 5.39028
Ar 1.87106 1.93177 -5.32074
Ar -1.88398 1.8912 -5.28275
Ar -1.95424 -1.88331 -5.28912
Ar 1.82502 -1.82148 -5.49469
38
Atoms. Timestep: 100000
Ar 1.91488 1.81481 0.0296954
Ar 5.65814 1.87187 0.0127463
Ar 1.81855 5.66985 -0.0252013
Ar -1.94341 1.82476 0.0682613
Ar -5.68225 1.97318 0.0158144
Ar -2.05499 5.60282 0.0800985
Ar -1.85012 -1.87704 -0.0825752
Ar -5.69273 -1.79559 -0.0435739
Ar -1.87938 -5.59408 0.0442972
Ar 1.88786 -1.95418 0.036522
Ar 5.65775 -1.88113 -0.108568
Ar 1.90803 -5.61432 -0.0275947
Ar 0.0292486 -0.0693977 2.65989
Ar 3.85853 -0.000422923 2.5953
Ar -3.83387 0.00280051 2.69
Ar -0.0406148 3.78222 2.63227
Ar 0.0303258 -3.7603 2.74348
Ar 3.7361 3.81084 2.61952
Ar -3.92441 3.89679 2.72962
Ar -3.7018 -3.63429 2.69916
Ar 3.89489 -3.79135 2.65523
Ar 0.0289675 0.0547534 -2.64163
Ar 3.74391 -0.0804409 -2.65803
Ar -3.77023 0.0288484 -2.68808
Ar -0.0480346 3.70272 -2.60398
Ar -0.0420525 -3.76812 -2.69733
Ar 3.63358 3.78821 -2.64806
Ar -3.81265 3.67209 -2.66332
Ar -3.77962 -3.79276 -2.68363
Ar 3.78559 -3.85889 -2.76029
Ar 1.94853 1.86776 5.30732
Ar -1.93739 1.90299 5.25918
Ar -1.81032 -1.88106 5.45039
Ar 2.03852 -1.91715 5.44169
Ar 2.00796 1.86287 -5.35992
Ar -1.79906 1.91363 -5.45933
Ar -1.842 -1.90316 -5.3203
Ar 1.86558 -1.86915 -5.29908
38
Atoms. Timestep: 110000
Ar 1.88585 1.91971 0.0204869
Ar 5.67597 1.91167 -0.044946
Ar 1.96031 5.68592 -0.0247789
Ar -1.8484 1.84166 0.0154064
Ar -5.70962 1.92105 0.00799733
Ar -1.86576 5.66228 0.00695496
Ar -2.01133 -1.85624 -0.0191445
Ar -5.7756 -1.85674 -0.108033
Ar -1.83042 -5.67161 -0.0631989
Ar 1.86917 -1.78125 -0.0327447
Ar 5.66777 -1.84136 -0.0106193
Ar 1.99092 -5.71767 0.116905
Ar -0.0582475 0.0156142 2.65158
Ar 3.76281 0.0554542 2.60472
Ar -3.86162 -0.0824266 2.71511
Ar 0.0654275 3.7703 2.70124
Ar -0.0511226 -3.65666 2.53995
Ar 3.84214 3.73796 2.69131
Ar -3.72474 3.70178 2.69094
Ar -3.91329 -3.76316 2.61716
Ar 3.84453 -3.65608 2.77077
Ar 0.0187212 -0.0389484 -2.65274
Ar 3.71707 -0.00478632 -2.69771
Ar -3.84595 -0.0119307 -2.69413
Ar -0.0422592 3.67493 -2.56908
Ar 0.0391602 -3.83078 -2.61378
Ar 3.8205 3.79632 -2.76589
Ar -3.83448 3.75919 -2.62494
Ar -3.72925 -3.73248 -2.73985
Ar 3.77471 -3.75497 -2.55691
Ar 1.92021 1.93977 5.37142
Ar -1.85037 1.81189 5.40205
Ar -1.78086 -1.95305 5.37134
Ar 1.97513 -1.79451 5.34064
Ar 1.79012 1.83864 -5.44524
Ar -1.90298 1.87332 -5.23021
Ar -1.88349 -1.89779 -5.40608
Ar 1.90125 -2.01401 -5.33597
38
Atoms. Timestep: 120000
Ar 1.90315 1.87649 -0.00530865
Ar 5.58437 1.95667 -0.0171477
Ar 2.06369 5.6736 -0.050953
Ar -1.79985 1.85469 -0.0319491
Ar -5.71355 1.71608 -0.0155928
Ar -1.82146 5.72722 0.0227112
Ar -1.88892 -1.89051 0.0247497
Ar -5.71221 -2.06783 0.0281815
Ar -1.93613 -5.68759 0.0410529
Ar 1.83717 -1.90706 -0.0245983
Ar 5.68513 -1.88531 -0.00789345
Ar 1.83588 -5.65121 -0.0371618
Ar -0.0281161 -0.010325 2.63836
Ar 3.75756 -0.0150526 2.567
Ar -3.86161 -0.02681 2.67932
Ar 0.0765978 3.74985 2.64355
Ar 0.0640169 -3.75279 2.73003
Ar 3.74398 3.71929 2.71657
Ar -3.78133 3.78205 2.51886
Ar -3.68168 -3.76903 2.7481
Ar 3.80771 -3.82273 2.61831
Ar 0.039785 0.0762897 -2.67237
Ar 3.76516 -0.0340285 -2.62133
Ar -3.81592 -0.0625015 -2.69278
Ar -0.019147 3.88374 -2.64463
Ar -0.0214517 -3.69156 -2.58573
Ar 3.80138 3.85809 -2.80532
Ar -3.71783 3.70806 -2.5621
Ar -3.81295 -3.84039 -2.64625
Ar 3.75867 -3.7305 -2.64483
Ar 1.85173 1.89393 5.34545
Ar -1.91941 1.86801 5.25489
Ar -1.88828 -1.79639 5.39061
Ar 1.91626 -1.80833 5.3526
Ar 1.87231 1.94516 -5.31179
Ar -1.81692 1.92414 -5.26415
Ar -1.95005 -1.90017 -5.32717
Ar 1.82426 -1.86223 -5.35131
38
Atoms. Timestep: 130000
Ar 1.84209 1.82225 0.019802
Ar 5.58507 1.95046 -0.0418744
Ar 1.71381 5.52846 0.0681522
Ar -1.89407 1.90183 -0.0218413
Ar -5.57463 1.88652 0.0356344
Ar -2.01569 5.60552 -0.0847761
Ar -1.85847 -1.83329 -0.000439195
Ar -5.64776 -1.87996 0.0449279
Ar -1.9715 -5.57557 0.0248183
Ar 1.83852 -1.87396 -0.00797385
Ar 5.71639 -1.77959 0.0781064
Ar 1.85195 -5.8145 0.0608517
Ar 0.0446842 0.0639138 2.66413
Ar 3.78611 0.00959041 2.64219
Ar -3.68497 0.0792068 2.64134
Ar -0.0624015 3.71952 2.75103
Ar 0.0172388 -3.74698 2.66014
Ar 3.72824 3.74656 2.64669
Ar -3.76533 3.83174 2.77152
Ar -3.68085 -3.64248 2.7008
Ar 3.80043 -3.80792 2.54203
Ar 0.0377467 0.0819085 -2.61507
Ar 3.76751 -0.0726497 -2.68745
Ar -3.69991 0.0493011 -2.68942
Ar -0.1063 3.83527 -2.74468
Ar -0.000742418 -3.74105 -2.6246
Ar 3.68939 3.70706 -2.71005
Ar -3.89835 3.81532 -2.73211
Ar -3.79961 -3.7816 -2.72027
Ar 3.88306 -3.90865 -2.52929
Ar 1.88004 1.81591 5.33357
Ar -1.81338 1.83675 5.38815
Ar -1.81264 -1.85094 5.34942
Ar 1.97807 -1.90981 5.26273
Ar 1.88749 1.85498 -5.41907
Ar -1.80742 1.92243 -5.35367
Ar -1.86344 -1.82833 -5.36448
Ar 1.91162 -2.01624 -5.33896
38
Atoms. Timestep: 140000
Ar 1.87535 1.78046 -0.0539069
Ar 5.62224 1.80785 -0.06463
Ar 1.87816 5.56323 -0.00124012
Ar -1.87844 1.81761 0.0360521
Ar -5.7548 1.88217 0.07307
Ar -1.81557 5.64629 -0.113736
Ar -1.81691 -1.84809 0.0263873
Ar -5.55144 -1.87546 -0.00970118
Ar -1.82122 -5.78557 0.0134807
Ar 1.92459 -1.83503 0.0436593
Ar 5.67924 -1.91395 -0.0190554
Ar 1.96627 -5.56554 0.0089838
Ar -0.000647925 0.0256541 2.68219
Ar 3.80457 0.00441019 2.75988
Ar -3.77761 0.020948 2.63428
Ar 0.041308 3.78173 2.69223
Ar -0.00881537 -3.72267 2.68229
Ar 3.78494 3.75 2.71645
Ar -3.67615 3.78196 2.63797
Ar -3.72813 -3.83047 2.62534
Ar 3.77359 -3.73247 2.71162
Ar 0.01461 0.0639994 -2.68729
Ar 3.75626 0.000998338 -2.78004
Ar -3.83293 0.0133879 -2.63215
Ar 0.00445235 3.7909 -2.76782
Ar 0.0456188 -3.71079 -2.62634
Ar 3.74085 3.67792 -2.72687
Ar -3.82757 3.74048 -2.60288
Ar -3.68242 -3.79723 -2.67215
Ar 3.87097 -3.81863 -2.74303
Ar 1.84415 1.86282 5.50817
Ar -1.89734 1.97166 5.37198
Ar -1.97629 -1.77999 5.29125
Ar 1.78233 -1.85521 5.39642
Ar 1.75281 1.86087 -5.39146
Ar -1.98256 1.91895 -5.28114
Ar -1.92134 -1.80965 -5.38119
Ar 1.78986 -1.8826 -5.35708
38
Atoms. Timestep: 150000
Ar 1.90565 1.91992 0.00390734
Ar 5.67049 1.91985 -0.0449756
Ar 1.90213 5.70853 -0.0235998
Ar -1.80578 1.82954 0.0316291
Ar -5.55998 1.88834 0.0180195
Ar -1.8945 5.6336 -0.0396772
Ar -1.92119 -1.93153 0.0490601
Ar -5.69598 -1.8717 -0.0182723
Ar -1.90144 -5.67878 0.0164081
Ar 1.85732 -1.90919 0.0151584
Ar 5.60493 -1.81463 -0.00621097
Ar 1.82597 -5.70168 -0.109508
Ar 0.0240552 0.0498128 2.68262
Ar 3.72758 0.0500971 2.66872
Ar -3.76782 -0.0495357 2.726
Ar 0.0289065 3.81131 2.65964
Ar -0.000750224 -3.7868 2.6759
Ar 3.78713 3.83386 2.62509
Ar -3.751 3.7807 2.65935
Ar -3.80962 -3.84402 2.7151
Ar 3.85583 -3.84728 2.58736
Ar -0.0426925 -0.0595992 -2.6022
Ar 3.74453 -0.0196062 -2.66425
Ar -3.81013 -0.042417 -2.67428
Ar -0.0250909 3.70468 -2.64872
Ar -0.0679021 -3.72417 -2.62705
Ar 3.85339 3.85471 -2.61931
Ar -3.72455 3.76003 -2.70407
Ar -3.86127 -3.78579 -2.64581
Ar 3.76427 -3.71867 -2.61867
Ar 1.8663 1.89058 5.26938
Ar -1.87802 1.95886 5.36092
Ar -1.79463 -1.84862 5.32453
Ar 1.88622 -1.86848 5.26449
Ar 1.84394 1.80985 -5.26965
Ar -1.90146 1.92419 -5.35812
Ar -1.87886 -1.96754 -5.33263
Ar 1.94603 -1.85741 -5.34628
38
Atoms. Timestep: 160000
Ar 1.84191 1.82994 0.0152536
Ar 5.61868 1.88009 -0.0331585
Ar 1.95199 5.69527 -0.0163154
Ar -1.95368 1.88624 0.0177302
Ar -5.73825 1.98944 0.00378329
Ar -1.84559 5.72359 0.0215478
Ar -1.85532 -1.86132 0.00593052
Ar -5.7095 -1.89714 0.0418816
Ar -1.89869 -5.61181 0.0669299
Ar 1.92167 -1.86751 -0.00188009
Ar 5.70274 -1.95713 0.0604753
Ar 1.93701 -5.6205 -0.0044378
Ar -0.035957 -0.044833 2.60061
Ar 3.73042 -1.81631e-05 2.65107
Ar -3.8036 -0.020922 2.61129
Ar 0.0013358 3.80264 2.64683
Ar 0.125222 -3.78993 2.62389
Ar 3.79039 3.79497 2.55937
Ar -3.77427 3.78486 2.70417
Ar -3.77502 -3.86 2.77988
Ar 3.81453 -3.79088 2.70144
Ar -0.0402569 0.0225897 -2.63662
Ar 3.77864 -0.00631622 -2.69709
Ar -3.7869 0.0219829 -2.61314
Ar -0.0213419 3.7409 -2.66233
Ar 0.00968895 -3.78215 -2.71629
Ar 3.78737 3.77959 -2.66382
Ar -3.69698 3.8057 -2.67324
Ar -3.82026 -3.75225 -2.68545
Ar 3.80741 -3.75218 -2.66787
Ar 1.85235 1.87495 5.22364
Ar -1.84012 1.8874 5.30429
Ar -1.83538 -1.9598 5.32342
Ar 1.90204 -1.87064 5.3871
Ar 1.81697 1.89427 -5.30948
Ar -1.94755 1.83005 -5.38137
Ar -1.8712 -1.90084 -5.28697
Ar 1.86149 -1.89727 -5.30107
38
Atoms. Timestep: 170000
Ar 1.79848 1.82664 -0.0149758
Ar 5.79255 1.89679 -0.0258799
Ar 1.89542 5.55171 -0.0309213
Ar -1.84625 1.86096 -0.02107
Ar -5.76544 1.90629 0.0333967
Ar -1.84719 5.68933 0.044305
Ar -1.89401 -1.81207 0.0823113
Ar -5.66472 -1.89378 0.0193893
Ar -1.88677 -5.55868 0.033291
Ar 1.7968 -1.87696 -0.0379023
Ar 5.62192 -1.90886 -0.0110127
Ar 2.00367 -5.54564 -0.0818623
Ar -0.0184155 0.00377342 2.65307
Ar 3.70888 0.0659489 2.58918
Ar -3.74924 0.0347302 2.70916
Ar -0.00100929 3.7143 2.664
Ar 0.0687524 -3.77322 2.76975
Ar 3.72925 3.79479 2.64042
Ar -3.72562 3.68398 2.65281
Ar -3.77122 -3.81396 2.66923
Ar 3.78354 -3.61836 2.72412
Ar 0.0517769 -0.0688457 -2.69473
Ar 3.73072 -0.0687797 -2.65246
Ar -3.73952 0.0465387 -2.57485
Ar -0.00458748 3.70216 -2.70052
Ar 0.00298479 -3.79832 -2.74714
Ar 3.84017 3.66509 -2.64938
Ar -3.77174 3.79505 -2.66853
Ar -3.78006 -3.8024 -2.65582
Ar 3.72189 -3.7643 -2.79411
Ar 1.90598 1.98006 5.42679
Ar -1.87031 1.80993 5.41005
Ar -1.93728 -1.94872 5.42736
Ar 1.888 -1.82166 5.3905
Ar 1.93127 1.83519 -5.39482
Ar -1.83942 1.91367 -5.38095
Ar -1.93867 -1.90263 -5.31712
Ar 1.78142 -1.79873 -5.48509
38
Atoms. Timestep: 180000
Ar 1.90842 1.89573 -0.0351158
Ar 5.69468 1.93965 -0.0711875
Ar 1.8256 5.73896 0.0328667
Ar -1.85684 1.88134 -0.000213105
Ar -5.59352 1.95581 0.0535675
Ar -2.02617 5.71755 -0.0538875
Ar -1.87631 -1.86065 -0.0291929
Ar -5.66172 -1.84761 0.0600481
Ar -1.87739 -5.73854 0.051038
Ar 1.87047 -1.8753 -0.0549368
Ar 5.69821 -1.84185 -0.100531
Ar 1.83438 -5.68236 0.0794949
Ar 0.061341 -0.092601 2.64365
Ar 3.79554 0.0236907 2.63547
Ar -3.73063 -0.038099 2.73366
Ar 0.00445732 3.66594 2.62545
Ar -0.0856314 -3.77739 2.6645
Ar 3.78229 3.76758 2.61245
Ar -3.72213 3.76715 2.63694
Ar -3.8877 -3.77739 2.59918
Ar 3.7414 -3.65647 2.53953
Ar 0.0354151 0.0137535 -2.61767
Ar 3.77608 -0.00944998 -2.66999
Ar -3.75482 -0.0353255 -2.66301
Ar 0.045432 3.75308 -2.60811
Ar -0.066604 -3.75138 -2.59176
Ar 3.82891 3.81937 -2.63374
Ar -3.80126 3.7731 -2.6769
Ar -3.81982 -3.78971 -2.56674
Ar 3.66788 -3.80453 -2.66172
Ar 1.89142 1.93005 5.29708
Ar -1.86207 1.78613 5.38023
Ar -1.85987 -1.98392 5.35225
Ar 1.89693 -1.81155 5.36301
Ar 1.9376 1.87648 -5.3236
Ar -1.8078 1.88747 -5.32374
Ar -1.87326 -1.85534 -5.35852
Ar 1.86907 -1.96239 -5.31986
38
Atoms. Timestep: 190000
Ar 1.91947 1.88951 0.00542532
Ar 5.72335 1.7623 0.00511841
Ar 1.92546 5.77294 -0.0301431
Ar -1.93042 1.92878 0.0171637
Ar -5.69048 1.92957 -0.064355
Ar -1.91757 5.71399 0.0901834
Ar -1.86345 -1.88745 0.0137311
Ar -5.7282 -1.87471 -0.00405618
Ar -1.79313 -5.70988 0.0574168
Ar 1.9201 -1.89518 0.0182843
Ar 5.67085 -2.03071 -0.0891733
Ar 1.93743 -5.6559 -0.0203817
Ar -0.0236912 0.0297349 2.56958
Ar 3.81365 -0.0409129 2.67148
Ar -3.78808 0.07205 2.59995
Ar 0.0213468 3.79758 2.66903
Ar 0.00095659 -3.75978 2.61507
Ar 3.84255 3.77094 2.49728
Ar -3.90298 3.88091 2.63251
Ar -3.72859 -3.84564 2.58979
Ar 3.83366 -3.79476 2.71042
Ar 0.0067358 0.0363841 -2.64878
Ar 3.72439 0.040266 -2.64528
Ar -3.76458 0.00268461 -2.55597
Ar -0.0525697 3.79825 -2.58966
Ar -0.00135118 -3.82641 -2.6299
Ar 3.69281 3.80819 -2.5814
Ar -3.82832 3.92293 -2.65292
Ar -3.7497 -3.85349 -2.56255
Ar 3.80081 -3.86222 -2.73049
Ar 1.9512 1.93538 5.30487
Ar -1.9144 1.80878 5.27645
Ar -1.83995 -1.91619 5.18874
Ar 1.86323 -1.86428 5.30557
Ar 1.86373 1.84152 -5.32849
Ar -1.988 1.9157 -5.18019
Ar -1.87553 -1.86651 -5.2378
Ar 1.87126 -1.97338 -5.2865
38
Atoms. Timestep: 200000
Ar 1.85578 1.84482 -0.00852167
Ar 5.59286 1.89784 0.0222629
Ar 1.83176 5.56304 -0.00885339
Ar -1.83992 1.95573 0.0207795
Ar -5.6534 1.86316 -0.0629935
Ar -1.9422 5.66724 0.0445432
Ar -1.84731 -1.81223 0.0726648
Ar -5.62975 -1.93492 -0.0211417
Ar -1.88272 -5.55843 0.0841006
Ar 1.85794 -1.86304 -0.0372468
Ar 5.63613 -1.89572 -0.0554828
Ar 1.84086 -5.69173 -0.0723656
Ar -0.00922156 0.0714975 2.65574
Ar 3.70976 -0.0222768 2.63312
Ar -3.80349 0.0184519 2.65824
Ar 0.025 3.78137 2.74008
Ar 0.0654285 -3.77949 2.69391
Ar 3.85082 3.78795 2.67644
Ar -3.78945 3.72672 2.7752
Ar -3.8012 -3.69526 2.66073
Ar 3.81664 -3.81187 2.55812
Ar -0.0484129 0.0119085 -2.58843
Ar 3.73468 0.0131688 -2.66443
Ar -3.72449 -0.0209182 -2.63335
Ar -0.0089684 3.75681 -2.69227
Ar 0.0166452 -3.79852 -2.63553
Ar 3.74696 3.80223 -2.72706
Ar -3.7181 3.70318 -2.69031
Ar -3.76116 -3.77197 -2.75629
Ar 3.7966 -3.79634 -2.71683
Ar 1.9467 1.86317 5.3413
Ar -1.8641 1.91589 5.40653
Ar -1.82386 -1.81985 5.32751
Ar 1.85565 -1.92904 5.3202
Ar 1.92471 1.87857 -5.36104
Ar -1.89496 1.8877 -5.3315
Ar -1.87598 -1.89435 -5.27511
Ar 1.81577 -1.91347 -5.35274
38
Atoms. Timestep: 210000
Ar 1.82973 1.87279 -0.00335138
Ar 5.72796 1.97188 -0.0701222
Ar 2.03308 5.62146 -0.045412
Ar -1.9268 1.8134 0.0523042
Ar -5.73555 1.81265 0.0501428
Ar -1.76363 5.60124 -0.013628
Ar -1.85152 -1.86884 -0.0113769
Ar -5.63512 -1.9256 0.0375288
Ar -1.8154 -5.68852 -0.0377086
Ar 1.85395 -1.82895 -0.0087091
Ar 5.69539 -1.83124 -0.0239917
Ar 1.88702 -5.58266 0.0273591
Ar -0.0151364 0.0132234 2.66465
Ar 3.7847 0.0354587 2.59909
Ar -3.7939 -0.0155612 2.68337
Ar 0.0454783 3.77389 2.6987
Ar -0.0149126 -3.72301 2.64309
Ar 3.76352 3.74284 2.69384
Ar -3.72152 3.77447 2.6502
Ar -3.78736 -3.81849 2.65804
Ar 3.8401 -3.79253 2.63407
Ar -0.0292637 0.0397107 -2.60715
Ar 3.73541 -0.0183864 -2.66046
Ar -3.78685 -0.0447659 -2.64926
Ar 0.0388818 3.73053 -2.63491
Ar -0.0608458 -3.74199 -2.68395
Ar 3.82531 3.71434 -2.73072
Ar -3.79749 3.69214 -2.65749
Ar -3.77069 -3.76826 -2.64355
Ar 3.6815 -3.76574 -2.6315
Ar 1.92534 1.86226 5.38419
Ar -1.91101 1.91122 5.2799
Ar -1.98442 -1.86031 5.40836
Ar 1.89914 -1.85591 5.30558
Ar 1.92455 1.91125 -5.30357
Ar -1.89042 1.90425 -5.32031
Ar -2.01495 -1.84508 -5.39033
Ar 1.81772 -1.82217 -5.3429
38
Atoms. Timestep: 220000
Ar 1.893 1.83815 0.0284626
Ar 5.67113 1.88122 -0.0392751
Ar 1.93964 5.60639 -0.0312368
Ar -1.82283 1.86945 0.0318988
Ar -5.71192 1.93051 0.0702595
Ar -1.88926 5.69039 -0.0640056
Ar -1.90573 -1.82832 -0.0472549
Ar -5.70553 -1.85683 -0.0140608
Ar -1.87131 -5.67232 -0.120293
Ar 1.91533 -1.88349 0.0663011
Ar 5.68988 -1.88262 -0.0647486
Ar 1.95014 -5.88903 -0.0026337
Ar 0.0285003 -0.0213444 2.7127
Ar 3.86595 0.0305131 2.67438
Ar -3.8251 0.0293775 2.70327
Ar -0.0128723 3.77214 2.62419
Ar 0.0129456 -3.80102 2.62624
Ar 3.81757 3.8345 2.58488
Ar -3.78694 3.81028 2.70069
Ar -3.72786 -3.7779 2.63523
Ar 3.81776 -3.81859 2.61271
Ar -0.0301946 -0.0515933 -2.5981
Ar 3.66028 -0.0474523 -2.59721
Ar -3.82146 0.0494554 -2.68047
Ar -0.0251482 3.743 -2.66658
Ar 0.0469928 -3.7505 -2.63021
Ar 3.70898 3.71596 -2.64835
Ar -3.86757 3.69847 -2.66608
Ar -3.76738 -3.69945 -2.71487
Ar 3.77359 -3.72422 -2.59998
Ar 1.84756 1.90738 5.28119
Ar -1.91979 1.91916 5.33704
Ar -1.8522 -1.84223 5.37618
Ar 1.99036 -1.93487 5.37267
Ar 1.76154 1.88909 -5.2662
Ar -1.94013 1.96867 -5.32526
Ar -1.79021 -1.83724 -5.3264
Ar 1.88429 -1.8641 -5.3351
38
Atoms. Timestep: 230000
Ar 1.78665 1.86213 0.0657193
Ar 5.56544 1.86285 0.0185836
Ar 1.84737 5.6625 -0.0230178
Ar -1.87837 1.83881 0.0427236
Ar -5.64119 1.91538 -0.00155826
Ar -1.91796 5.51527 0.0254544
Ar -1.83072 -1.88936 0.0543468
Ar -5.5904 -1.86558 0.0687137
Ar -1.85867 -5.6703 -0.0210383
Ar 1.91066 -1.79803 0.00941465
Ar 5.60733 -1.97628 -0.0535947
Ar 1.96821 -5.6308 -0.146782
Ar -0.0537521 0.0304468 2.73133
Ar 3.78269 -0.0052712 2.70049
Ar -3.77689 0.0687821 2.78282
Ar -0.0357796 3.73942 2.75097
Ar 0.0507291 -3.75772 2.61216
Ar 3.74119 3.82383 2.65795
Ar -3.88568 3.84675 2.65997
Ar -3.72836 -3.72978 2.7034
Ar 3.79229 -3.88462 2.64278
Ar 0.0352903 0.02237 -2.70911
Ar 3.73898 0.0144669 -2.67448
Ar -3.7165 0.000209681 -2.64077
Ar -0.00668649 3.72947 -2.74134
Ar -0.0122912 -3.63466 -2.66103
Ar 3.74888 3.71333 -2.64746
Ar -3.74729 3.76415 -2.66151
Ar -3.77205 -3.7831 -2.64538
Ar 3.86593 -3.70096 -2.82014
Ar 1.89032 1.80375 5.35229
Ar -1.93679 1.98704 5.42006
Ar -1.85423 -1.76201 5.43052
Ar 1.91068 -1.95455 5.34296
Ar 1.87641 1.83911 -5.45886
Ar -1.86008 1.90378 -5.37821
Ar -1.94319 -1.95659 -5.41314
Ar 1.92982 -1.94325 -5.37523
38
Atoms. Timestep: 240000
Ar 1.89374 1.92383 -0.0405806
Ar 5.74334 1.95702 -0.000361524
Ar 1.93442 5.69643 -0.0531314
Ar -1.82663 1.85902 0.0445488
Ar -5.71928 1.8036 0.0156714
Ar -1.92447 5.68451 0.0348252
Ar -1.91892 -1.84221 0.0657339
Ar -5.66424 -1.93993 0.0690981
Ar -1.77525 -5.63957 -0.0191146
Ar 1.79493 -1.87713 -0.0421622
Ar 5.68576 -1.85167 0.0481574
Ar 1.94306 -5.63231 -0.0185293
Ar -0.00565949 0.00431498 2.62266
Ar 3.75104 0.0161976 2.59632
Ar -3.80582 -0.0297023 2.69081
Ar 0.00756337 3.76801 2.65787
Ar 0.0126783 -3.7792 2.63214
Ar 3.78078 3.76647 2.6039
Ar -3.73654 3.75116 2.61972
Ar -3.78449 -3.92821 2.67768
Ar 3.706 -3.70766 2.6704
Ar -0.010739 0.0313026 -2.64834
Ar 3.82742 -0.0062682 -2.70766
Ar -3.74381 0.0305541 -2.61976
Ar 0.000786399 3.78345 -2.64615
Ar -0.00061904 -3.73036 -2.65768
Ar 3.81954 3.74128 -2.72062
Ar -3.83214 3.82152 -2.52857
Ar -3.86397 -3.74169 -2.61396
Ar 3.82149 -3.8543 -2.72737
Ar 1.93438 1.88146 5.31314
Ar -1.85167 1.82723 5.37306
Ar -1.96961 -1.91673 5.26645
Ar 1.76718 -1.83235 5.33006
Ar 1.86425 1.8753 -5.30265
Ar -1.85203 1.88315 -5.31378
Ar -1.87144 -1.86492 -5.34293
Ar 1.87096 -1.9306 -5.3289
38
Atoms. Timestep: 250000
Ar 1.89071 1.91593 0.0483933
Ar 5.67629 1.84909 0.108753
Ar 1.85232 5.73337 -0.0516341
Ar -1.92521 1.85872 -0.0415327
Ar -5.7023 1.94058 0.0488325
Ar -1.90321 5.70825 -0.0904118
Ar -1.82159 -1.87216 -0.0451557
Ar -5.71966 -1.88258 0.0637938
Ar -1.9781 -5.64749 -0.0393814
Ar 1.88434 -1.81258 -0.0641769
Ar 5.80623 -1.92093 -0.0312198
Ar 1.80375 -5.63546 -0.0163181
Ar -0.0341393 0.0244517 2.57742
Ar 3.70623 0.0415346 2.65236
Ar -3.75234 -0.123261 2.64141
Ar -0.0373147 3.84902 2.60132
Ar -0.0192963 -3.74438 2.68331
Ar 3.75075 3.89368 2.69743
Ar -3.68419 3.69465 2.6945
Ar -3.67297 -3.93393 2.66398
Ar 3.82053 -3.71736 2.5422
Ar -0.0169158 0.0138504 -2.60634
Ar 3.8191 -0.0244607 -2.63921
Ar -3.77666 -0.0125248 -2.62976
Ar 0.0310853 3.77176 -2.59786
Ar -0.073387 -3.77733 -2.61386
Ar 3.79031 3.751 -2.55264
Ar -3.83439 3.79178 -2.68421
Ar -3.85493 -3.77375 -2.6598
Ar 3.78721 -3.87602 -2.60753
Ar 1.90844 1.91547 5.22667
Ar -1.76617 1.7513 5.23539
Ar -1.9224 -1.94641 5.41296
Ar 1.93548 -1.86921 5.2842
Ar 1.90343 1.98209 -5.30233
Ar -1.89958 1.86378 -5.31617
Ar -1.82181 -1.95086 -5.29653
Ar 1.85234 -1.82861 -5.29684
38
Atoms. Timestep: 260000
Ar 1.87008 1.82628 0.0166534
Ar 5.60213 1.86131 -0.0414361
Ar 1.81621 5.61004 -0.0668737
Ar -1.80224 1.90895 0.0367173
Ar -5.60013 1.95086 0.0758089
Ar -1.93883 5.58914 0.0130263
Ar -1.86761 -1.89481 -0.069116
Ar -5.62073 -1.83679 -0.056421
Ar -1.85896 -5.66003 -0.0359798
Ar 1.89573 -1.83096 -0.0549097
Ar 5.63699 -1.86066 -0.00705747
Ar 1.84984 -5.67057 0.0377653
Ar 0.0524894 -0.0251108 2.65667