38
Atoms. Timestep: 0
Ar 1.668 1.873 0
Ar 5.651 1.903 0.003
Ar 1.878 5.656 -0.01
Ar -1.867 1.863 -0.007
Ar -5.65 1.873 -0.014
Ar -1.898 5.645 -0.014
Ar -1.857 -1.873 0
Ar -5.64 -1.903 -0.003
Ar -1.867 -5.656 0.01
Ar 1.878 -1.863 0.007
Ar 5.661 -1.873 0.014
Ar 1.909 -5.645 0.014
Ar 0.002 0.007 2.642
Ar 3.751 0.017 2.659
Ar -3.75 -0.003 2.646
Ar -0.008 3.756 2.646
Ar 0.012 -3.745 2.659
Ar 3.761 3.786 2.656
Ar -3.778 3.766 2.646
Ar -3.757 -3.773 2.663
Ar 3.781 -3.752 2.673
Ar 0.009 -0.007 -2.642
Ar 3.761 0.003 -2.646
Ar -3.74 -0.017 -2.659
Ar -0.002 3.746 -2.659
Ar 0.019 -3.756 -2.646
Ar 3.768 3.773 -2.663
Ar -3.771 3.752 -2.673
Ar -3.75 -3.786 -2.656
Ar 3.788 -3.766 -2.646
Ar 1.871 1.897 5.329
Ar -1.888 1.886 5.325
Ar -1.878 -1.873 5.332
Ar 1.881 -1.863 5.339
Ar 1.888 1.873 -5.332
Ar -1.871 1.863 -5.339
Ar -1.861 -1.897 -5.329
Ar 1.898 -1.886 -5.325
38
Atoms. Timestep: 10000
Ar 1.90787 1.87933 -0.0378311
Ar 5.70851 1.95072 0.00786349
Ar 1.88807 5.75783 -0.0448741
Ar -1.83887 1.89395 -0.005437
Ar -5.67697 1.91912 -0.003568
Ar -1.95033 5.69494 -0.00521511
Ar -1.92481 -1.88206 0.00683358
Ar -5.68375 -1.91733 0.00677115
Ar -1.88638 -5.75311 -0.0303986
Ar 1.86415 -1.89711 0.071196
Ar 5.66718 -1.85911 0.0798166
Ar 1.95244 -5.75099 -0.0130487
Ar 0.0235701 -0.00469703 2.58194
Ar 3.74528 0.0779572 2.67421
Ar -3.76207 0.0343032 2.64113
Ar -0.00474704 3.78979 2.62845
Ar -0.00141682 -3.81255 2.6491
Ar 3.71615 3.84294 2.60771
Ar -3.72645 3.72885 2.71603
Ar -3.81159 -3.78167 2.62025
Ar 3.79632 -3.8289 2.73623
Ar -0.0442558 0.0160917 -2.64381
Ar 3.739 -0.0173958 -2.60531
Ar -3.7549 -0.012626 -2.69413
Ar -0.0675965 3.76085 -2.62771
Ar 0.0332198 -3.75328 -2.62511
Ar 3.78689 3.783 -2.67751
Ar -3.80394 3.76213 -2.62903
Ar -3.7915 -3.82616 -2.68026
Ar 3.80448 -3.76353 -2.62951
Ar 1.89428 1.95216 5.31675
Ar -1.81938 1.82602 5.31983
Ar -1.9326 -1.87829 5.32462
Ar 1.91483 -1.87015 5.28898
Ar 1.86654 1.84886 -5.30038
Ar -1.90937 1.89411 -5.42914
Ar -1.83244 -1.89804 -5.34369
Ar 1.91659 -1.90496 -5.25173
38
Atoms. Timestep: 20000
Ar 1.93471 1.84819 -0.0019626
Ar 5.66542 1.87079 0.0889888
Ar 1.92476 5.73857 0.0114521
Ar -1.95786 1.79941 -0.0289493
Ar -5.78969 1.83482 -0.0147943
Ar -1.85948 5.53953 -0.0413772
Ar -1.84667 -1.88312 0.0166125
Ar -5.67122 -1.8504 0.0272899
Ar -1.8221 -5.66221 0.00964709
Ar 1.93616 -1.86813 -0.0115999
Ar 5.67803 -1.91468 -0.00487815
Ar 1.97879 -5.58495 -0.0200222
Ar 0.00642772 0.0104348 2.66002
Ar 3.74675 -0.026405 2.70846
Ar -3.79303 0.0588312 2.69656
Ar -0.0450546 3.70416 2.61456
Ar -0.0132103 -3.74633 2.69903
Ar 3.8016 3.80894 2.72655
Ar -3.84727 3.74417 2.61448
Ar -3.76972 -3.75188 2.65176
Ar 3.82575 -3.80084 2.75349
Ar 0.00984204 -0.0107272 -2.64654
Ar 3.80287 0.0165983 -2.6585
Ar -3.81078 -0.120718 -2.68738
Ar 0.0472568 3.71467 -2.64091
Ar -0.0164848 -3.72606 -2.66956
Ar 3.81981 3.76103 -2.64527
Ar -3.79256 3.75252 -2.72994
Ar -3.76188 -3.82204 -2.62041
Ar 3.82097 -3.72313 -2.73208
Ar 1.91273 1.91578 5.3257
Ar -1.97623 1.9894 5.28795
Ar -1.83149 -1.76853 5.33706
Ar 1.90792 -1.95257 5.40878
Ar 1.92036 1.98852 -5.35831
Ar -1.87164 1.78963 -5.33206
Ar -1.98658 -1.89809 -5.39844
Ar 1.7248 -1.77417 -5.3954
38
Atoms. Timestep: 30000
Ar 1.89812 1.78389 -0.0221782
Ar 5.68112 2.02294 0.00179517
Ar 1.83826 5.58533 -0.106114
Ar -1.8737 1.86535 0.023085
Ar -5.5611 1.94469 0.0842181
Ar -2.05709 5.63014 -0.0303112
Ar -1.84867 -1.84515 -0.00165384
Ar -5.66141 -1.7272 0.0383765
Ar -1.86396 -5.58981 -0.01533
Ar 1.86622 -1.90881 -0.0422399
Ar 5.6754 -1.80753 -0.0219142
Ar 1.95638 -5.73508 0.099341
Ar 0.0382584 0.0185168 2.70814
Ar 3.76729 -0.0212722 2.65014
Ar -3.74136 -0.0381147 2.70949
Ar -0.0525237 3.74459 2.59418
Ar 0.034451 -3.75613 2.63058
Ar 3.75574 3.82271 2.59994
Ar -3.78358 3.76666 2.82956
Ar -3.83661 -3.77619 2.55429
Ar 3.79397 -3.69789 2.59311
Ar 0.0312681 -0.0309815 -2.65287
Ar 3.77617 0.00445404 -2.65014
Ar -3.74214 -0.0114904 -2.66855
Ar 0.00645161 3.64738 -2.667
Ar -0.0261287 -3.76966 -2.62896
Ar 3.75909 3.79021 -2.72551
Ar -3.81478 3.7281 -2.68659
Ar -3.78223 -3.68151 -2.68455
Ar 3.75131 -3.78265 -2.59528
Ar 1.78791 1.95283 5.45522
Ar -1.96539 1.82066 5.37451
Ar -1.90395 -1.97167 5.34061
Ar 1.91564 -1.8267 5.32854
Ar 1.94032 1.82195 -5.30282
Ar -1.80845 1.86077 -5.39764
Ar -1.84744 -1.88892 -5.31766
Ar 1.89912 -1.94342 -5.3978
38
Atoms. Timestep: 40000
Ar 1.82229 1.89683 0.0177172
Ar 5.77331 1.83118 -0.00348843
Ar 1.8874 5.83082 -0.0356191
Ar -1.87356 1.83007 0.0168338
Ar -5.71891 1.84335 -0.0237971
Ar -1.88664 5.71353 0.0633355
Ar -1.88718 -1.88936 0.0230725
Ar -5.71333 -1.95681 0.0151156
Ar -1.86015 -5.73875 0.0428391
Ar 1.81251 -1.83671 -0.0142146
Ar 5.64274 -2.01656 0.00273535
Ar 1.88749 -5.61307 -0.0428237
Ar -0.0835163 0.00794913 2.65817
Ar 3.75879 0.0272132 2.55337
Ar -3.79584 -0.0849535 2.62327
Ar -0.0506828 3.74754 2.5916
Ar 0.0180177 -3.69875 2.63364
Ar 3.83784 3.85898 2.47351
Ar -3.85726 3.72434 2.53617
Ar -3.74134 -3.86219 2.66196
Ar 3.7241 -3.75937 2.73626
Ar 0.00100455 -0.0264063 -2.64821
Ar 3.81417 0.000746123 -2.59308
Ar -3.73294 -0.0905024 -2.60253
Ar 0.0770222 3.75749 -2.6264
Ar -0.0284626 -3.82105 -2.6813
Ar 3.8055 3.79724 -2.5411
Ar -3.76694 3.75757 -2.57973
Ar -3.75281 -3.80254 -2.5842
Ar 3.77896 -3.86464 -2.7331
Ar 1.90519 2.01833 5.25849
Ar -1.95893 1.8872 5.30765
Ar -1.84855 -1.92865 5.41796
Ar 1.89372 -1.75256 5.29099
Ar 1.98108 1.95454 -5.31178
Ar -1.86726 1.92871 -5.2859
Ar -1.86804 -1.86134 -5.29189
Ar 1.8732 -1.80841 -5.32552
38
Atoms. Timestep: 50000
Ar 1.8275 1.85425 -0.0132403
Ar 5.59456 1.96612 0.0173179
Ar 1.90808 5.59697 0.0277749
Ar -1.86145 1.85045 -0.0612
Ar -5.61209 1.94381 -0.0711001
Ar -1.80391 5.73122 -0.0298567
Ar -1.89437 -1.92478 -0.0449204
Ar -5.65926 -1.8322 0.0810097
Ar -1.78612 -5.7126 -0.0251861
Ar 1.83954 -1.81075 -0.00933175
Ar 5.59105 -1.84107 -0.0107491
Ar 2.03329 -5.62545 0.0713853
Ar -0.043271 -0.0532237 2.62289
Ar 3.70367 0.0814962 2.64831
Ar -3.7175 -0.0256283 2.60177
Ar 0.0557461 3.70604 2.66706
Ar 0.0399805 -3.79234 2.66361
Ar 3.7593 3.90345 2.83851
Ar -3.70055 3.75545 2.59271
Ar -3.7678 -3.91623 2.65654
Ar 3.85536 -3.7224 2.67559
Ar -0.0656953 -0.0135277 -2.67167
Ar 3.63672 0.000874922 -2.61996
Ar -3.84378 0.00412144 -2.72047
Ar 0.0749576 3.85619 -2.69951
Ar -0.0268506 -3.83679 -2.69872
Ar 3.78351 3.81205 -2.66546
Ar -3.69657 3.84256 -2.71387
Ar -3.81013 -3.85008 -2.53355
Ar 3.74199 -3.74947 -2.6877
Ar 1.82276 1.92269 5.39166
Ar -1.83198 1.88399 5.35693
Ar -1.95492 -1.92281 5.27287
Ar 1.90755 -1.90795 5.3982
Ar 1.88805 1.91704 -5.34775
Ar -1.90389 1.80454 -5.37806
Ar -1.9532 -1.99074 -5.27049
Ar 1.87171 -1.90424 -5.31133
38
Atoms. Timestep: 60000
Ar 1.85706 1.85817 0.00828408
Ar 5.69865 1.82764 -0.0316351
Ar 1.802 5.73565 0.0363945
Ar -1.98894 1.90437 -0.00631244
Ar -5.65739 1.84744 0.0608736
Ar -1.9199 5.62435 0.00458822
Ar -1.86897 -1.87872 0.0303539
Ar -5.64516 -2.03051 -0.044678
Ar -1.95102 -5.61635 -0.014472
Ar 1.87412 -1.84982 0.0161017
Ar 5.62031 -1.95417 0.0208304
Ar 1.82103 -5.59316 0.0543189
Ar 0.030007 0.0437706 2.61957
Ar 3.79638 -0.0371199 2.67676
Ar -3.79287 -0.0419679 2.70055
Ar -0.0411179 3.84798 2.62123
Ar 0.0113733 -3.72169 2.73493
Ar 3.71024 3.8107 2.6007
Ar -3.87535 3.792 2.71715
Ar -3.73833 -3.74382 2.67517
Ar 3.83369 -3.8031 2.67243
Ar 0.00324437 0.0152971 -2.62572
Ar 3.7521 0.0264597 -2.71881
Ar -3.77437 -0.0470576 -2.72128
Ar -0.0452693 3.77429 -2.64002
Ar 0.0712907 -3.73592 -2.65457
Ar 3.73667 3.69433 -2.61538
Ar -3.81604 3.77153 -2.75145
Ar -3.69165 -3.80752 -2.81047
Ar 3.86048 -3.85882 -2.62484
Ar 1.94847 1.90799 5.35432
Ar -1.74249 1.95103 5.36018
Ar -1.86855 -1.88624 5.34818
Ar 1.88472 -1.87827 5.36819
Ar 1.82786 1.87631 -5.40791
Ar -1.8984 1.93338 -5.34224
Ar -1.81302 -1.82203 -5.41451
Ar 1.99113 -1.93544 -5.25682
38
Atoms. Timestep: 70000
Ar 1.88946 1.84779 -0.0303582
Ar 5.66415 1.80414 0.0117804
Ar 1.95943 5.58758 -0.0436425
Ar -1.88857 1.86409 0.0204655
Ar -5.7229 1.8428 0.0047014
Ar -1.93251 5.73073 0.0348747
Ar -1.83574 -1.88433 -0.0373384
Ar -5.73885 -1.98202 -0.0205122
Ar -1.84504 -5.68877 0.117093
Ar 1.95394 -1.87948 0.0360696
Ar 5.66655 -1.91018 0.00446893
Ar 1.95502 -5.63964 0.00853317
Ar -0.00719935 0.0199595 2.59176
Ar 3.76028 -0.0492428 2.69549
Ar -3.80374 0.0177591 2.58848
Ar 0.00729575 3.8272 2.62917
Ar 0.045081 -3.71405 2.63704
Ar 3.77397 3.71242 2.5879
Ar -3.87357 3.80617 2.66775
Ar -3.72997 -3.791 2.68833
Ar 3.76317 -3.73392 2.6946
Ar 0.0450801 0.00650984 -2.61225
Ar 3.79019 0.0360389 -2.6967
Ar -3.7311 0.0249332 -2.57957
Ar -0.0507913 3.75289 -2.56841
Ar 0.070148 -3.70226 -2.60497
Ar 3.80043 3.76517 -2.69327
Ar -3.78981 3.79209 -2.66275
Ar -3.70459 -3.80579 -2.56516
Ar 3.71832 -3.74061 -2.76557
Ar 1.73755 1.84932 5.30753
Ar -1.96484 1.94375 5.29442
Ar -1.84374 -1.80848 5.321
Ar 1.81908 -1.90876 5.34714
Ar 1.84765 1.96514 -5.38065
Ar -1.9297 1.79304 -5.2816
Ar -1.81133 -1.95079 -5.30974
Ar 1.93921 -1.79919 -5.43611
38
Atoms. Timestep: 80000
Ar 1.85292 1.85251 -0.0162115
Ar 5.7067 2.07864 0.0312463
Ar 1.87321 5.65023 0.0104872
Ar -1.85251 1.84862 0.0363276
Ar -5.622 1.91564 -0.0667067
Ar -1.8097 5.6662 -0.0269422
Ar -1.83811 -1.91705 0.00262605
Ar -5.60456 -1.84587 -0.0610906
Ar -1.98619 -5.78437 0.0675152
Ar 1.89525 -1.85761 0.0148632
Ar 5.66877 -1.76322 0.00323574
Ar 1.83976 -5.67121 0.0311596
Ar 0.0214297 -0.0137638 2.6554
Ar 3.81896 0.0949658 2.65161
Ar -3.75319 -0.0178619 2.64156
Ar -0.00477828 3.7557 2.64529
Ar -0.0856811 -3.75999 2.61511
Ar 3.83484 3.78478 2.72014
Ar -3.77125 3.7242 2.62143
Ar -3.8772 -3.85107 2.61211
Ar 3.7607 -3.71147 2.62589
Ar 0.0399697 -0.00798951 -2.68473
Ar 3.78744 0.0706609 -2.66332
Ar -3.71561 -0.0758117 -2.65462
Ar -0.0283396 3.65911 -2.65
Ar 0.0406482 -3.76425 -2.6102
Ar 3.74576 3.90411 -2.64953
Ar -3.75356 3.80006 -2.64634
Ar -3.8349 -3.86225 -2.641
Ar 3.74156 -3.7477 -2.62525
Ar 1.88303 1.93611 5.38925
Ar -1.86068 1.87055 5.36618
Ar -1.87357 -1.96267 5.38353
Ar 1.88117 -1.83169 5.33654
Ar 1.86104 1.9221 -5.40832
Ar -1.93091 1.78247 -5.37131
Ar -1.94237 -2.01217 -5.29915
Ar 1.89395 -1.85762 -5.38678
38
Atoms. Timestep: 90000
Ar 1.86671 1.87549 0.0388975
Ar 5.72549 1.95113 0.0489488
Ar 1.76322 5.61611 -0.00719866
Ar -1.84841 1.90274 -0.0165172
Ar -5.6179 1.82809 -0.0561456
Ar -1.98622 5.66982 0.0423196
Ar -1.89409 -1.86103 -0.0191577
Ar -5.62789 -1.94502 0.00485147
Ar -1.95324 -5.58639 0.0149816
Ar 1.82035 -1.86586 -0.0159853
Ar 5.7016 -1.81881 -0.0240023
Ar 1.92228 -5.71162 0.0175816
Ar 0.0257618 -0.0300424 2.69003
Ar 3.86127 0.00487216 2.62697
Ar -3.64916 -0.0522702 2.66796
Ar 0.0133545 3.74394 2.68479
Ar 0.0107771 -3.68824 2.6449
Ar 3.82339 3.81613 2.65128
Ar -3.83468 3.66933 2.62668
Ar -3.77287 -3.7364 2.78322
Ar 3.77861 -3.72987 2.69455
Ar -0.0104505 -0.0128408 -2.70186
Ar 3.70159 -0.0257071 -2.6188
Ar -3.72669 -0.0192949 -2.71762
Ar -0.0221155 3.68037 -2.72418
Ar -0.0306517 -3.82407 -2.70423
Ar 3.7203 3.77278 -2.59566
Ar -3.74334 3.75212 -2.68799
Ar -3.83115 -3.77479 -2.67862
Ar 3.76474 -3.79821 -2.65323
Ar 1.91083 1.9553 5.37814
Ar -1.9231 1.88281 5.36391
Ar -1.87292 -1.8731 5.38178
Ar 1.90365 -1.80436 5.38132
Ar 1.96676 1.86615 -5.33221
Ar -1.92669 1.89564 -5.42289
Ar -1.88237 -1.80837 -5.44441
Ar 1.87524 -1.91553 -5.32242
38
Atoms. Timestep: 100000
Ar 1.8555 1.87899 0.01838
Ar 5.6315 1.88506 -0.00633998
Ar 1.90164 5.69024 0.0189781
Ar -1.90739 1.87706 -0.0435899
Ar -5.73248 2.00348 0.0246248
Ar -1.94741 5.64179 -0.0537343
Ar -1.83897 -1.89907 0.0530307
Ar -5.7543 -1.88795 0.0872918
Ar -1.75467 -5.65866 -0.0409757
Ar 1.94433 -1.87832 -0.00523832
Ar 5.71769 -1.90815 -0.0305741
Ar 2.01285 -5.56651 0.0371292
Ar -0.0387746 0.000813367 2.68776
Ar 3.71542 -0.0421476 2.65761
Ar -3.79413 0.0167189 2.612
Ar -0.0358387 3.7136 2.62917
Ar -0.00612658 -3.73892 2.66369
Ar 3.74766 3.71976 2.69421
Ar -3.78724 3.82557 2.62061
Ar -3.7449 -3.78274 2.62158
Ar 3.83192 -3.73685 2.68124
Ar -0.00424588 -0.0429334 -2.66241
Ar 3.83854 0.0314092 -2.6996
Ar -3.79747 -0.0137548 -2.59138
Ar 0.0412663 3.73818 -2.65906
Ar 0.0423126 -3.79604 -2.64842
Ar 3.764 3.78476 -2.70317
Ar -3.80743 3.78879 -2.62459
Ar -3.74184 -3.75277 -2.63917
Ar 3.8859 -3.80682 -2.71527
Ar 1.87171 1.8782 5.33133
Ar -1.93249 1.93299 5.34214
Ar -1.93286 -1.86469 5.34061
Ar 1.8461 -1.91251 5.33137
Ar 1.8356 1.76122 -5.37303
Ar -1.90237 1.91857 -5.3361
Ar -1.89536 -1.86636 -5.26793
Ar 1.87436 -1.93098 -5.35217
38
Atoms. Timestep: 110000
Ar 1.93145 1.8988 -0.0469044
Ar 5.61585 1.92695 -0.0392902
Ar 1.90072 5.70504 -0.0737797
Ar -1.81361 1.80906 -0.0118801
Ar -5.58868 1.88428 0.0661865
Ar -1.92312 5.63383 0.046078
Ar -1.9443 -1.93445 -0.010303
Ar -5.66789 -1.93167 0.077103
Ar -1.90522 -5.64376 -0.00809152
Ar 1.83023 -1.87927 -0.00822452
Ar 5.69698 -1.79687 0.0361086
Ar 1.90939 -5.73706 0.0165333
Ar 0.0159003 -0.0411944 2.64432
Ar 3.68197 0.104776 2.64309
Ar -3.7238 0.0155939 2.73037
Ar 0.0561322 3.70771 2.55235
Ar 0.00368442 -3.75941 2.64066
Ar 3.77516 3.85664 2.5728
Ar -3.78647 3.75825 2.68904
Ar -3.88894 -3.86571 2.74725
Ar 3.78632 -3.80844 2.61754
Ar 0.00582667 0.00971209 -2.67015
Ar 3.75449 -0.00306233 -2.66821
Ar -3.79065 -0.0185079 -2.6589
Ar -0.0287861 3.76074 -2.63721
Ar 0.0173307 -3.80787 -2.60718
Ar 3.75154 3.87179 -2.78539
Ar -3.84514 3.77762 -2.75221
Ar -3.79844 -3.78684 -2.69183
Ar 3.7697 -3.73569 -2.6316
Ar 1.8478 1.89509 5.36773
Ar -1.89268 1.90557 5.39439
Ar -1.90972 -1.89907 5.35792
Ar 1.86258 -1.90869 5.31121
Ar 1.95254 1.86783 -5.26232
Ar -1.77663 1.90907 -5.34236
Ar -1.82014 -1.84253 -5.35776
Ar 1.94062 -1.89723 -5.24707
38
Atoms. Timestep: 120000
Ar 1.83083 1.88679 0.0141561
Ar 5.63351 1.82589 0.0377268
Ar 1.87345 5.72492 -0.0915783
Ar -1.93721 1.86714 0.0487754
Ar -5.65493 1.83388 -0.0274333
Ar -1.91144 5.65143 0.0151962
Ar -1.87671 -1.88266 -0.00885626
Ar -5.63615 -1.99322 -0.0345785
Ar -1.90606 -5.69203 0.05135
Ar 1.89088 -1.83203 0.0304124
Ar 5.66525 -1.90824 0.0551614
Ar 1.88467 -5.67935 -0.0552269
Ar 0.00511556 0.035188 2.63234
Ar 3.75288 0.00965084 2.6721
Ar -3.80047 0.0215332 2.69459
Ar -0.0397058 3.81995 2.71403
Ar 0.00206289 -3.70027 2.63263
Ar 3.76131 3.80322 2.59076
Ar -3.80521 3.75323 2.76508
Ar -3.79681 -3.71181 2.67385
Ar 3.75986 -3.82384 2.70161
Ar -0.00911414 -0.0167041 -2.64538
Ar 3.77388 -0.00869777 -2.69357
Ar -3.73038 -0.0555819 -2.66355
Ar -0.0405643 3.72493 -2.64943
Ar 0.0034607 -3.68411 -2.65149
Ar 3.79931 3.80663 -2.667
Ar -3.74002 3.71861 -2.67096
Ar -3.76382 -3.84686 -2.83501
Ar 3.78797 -3.75622 -2.63208
Ar 1.89523 1.94564 5.27063
Ar -1.83971 1.81621 5.38421
Ar -1.81777 -1.8657 5.47704
Ar 1.93879 -1.79048 5.35646
Ar 1.95234 1.88907 -5.32894
Ar -1.83059 1.87639 -5.40899
Ar -1.92746 -1.84237 -5.38586
Ar 1.8553 -1.91914 -5.36819
38
Atoms. Timestep: 130000
Ar 1.85461 1.86903 -0.00039463
Ar 5.67165 1.88022 0.0670133
Ar 1.90462 5.60067 0.0238129
Ar -1.86038 1.91191 0.050666
Ar -5.73647 1.81648 -0.0749921
Ar -1.83537 5.70264 -0.0301449
Ar -1.84985 -1.80448 0.0371263
Ar -5.69027 -1.81777 -0.0422303
Ar -1.76384 -5.64975 -0.0589489
Ar 1.88893 -1.85871 0.0247664
Ar 5.67637 -1.83493 0.0302004
Ar 1.93388 -5.68826 -0.0255837
Ar 0.0654207 0.0300828 2.67424
Ar 3.79678 -0.0546838 2.69301
Ar -3.73526 0.0431244 2.56646
Ar 0.0216681 3.83969 2.6463
Ar 0.0473212 -3.78589 2.68476
Ar 3.79825 3.70971 2.64488
Ar -3.81152 3.80269 2.64771
Ar -3.8009 -3.78337 2.58411
Ar 3.84048 -3.79081 2.66516
Ar -0.0401282 -0.00700893 -2.61527
Ar 3.72983 -0.00807137 -2.6574
Ar -3.7898 -0.0186237 -2.68694
Ar -0.0342488 3.73991 -2.67534
Ar 0.0566107 -3.72447 -2.63852
Ar 3.70604 3.78248 -2.63237
Ar -3.82467 3.78825 -2.65286
Ar -3.80242 -3.86893 -2.53542
Ar 3.85915 -3.76458 -2.61407
Ar 1.7876 1.87602 5.42516
Ar -1.91377 1.93022 5.25435
Ar -1.80655 -1.80965 5.17056
Ar 1.89898 -1.89654 5.37046
Ar 1.83799 1.86592 -5.35064
Ar -1.9759 1.84993 -5.27052
Ar -1.93604 -1.93668 -5.31895
Ar 1.8332 -1.93479 -5.38015
38
Atoms. Timestep: 140000
Ar 1.87975 1.90392 -0.00533874
Ar 5.63887 2.00364 -0.0898599
Ar 1.80428 5.6433 0.0205053
Ar -1.85134 1.85945 -0.0208378
Ar -5.7125 1.95256 0.00815395
Ar -1.92228 5.58994 0.0324597
Ar -1.85884 -1.89729 -0.0220658
Ar -5.64925 -1.84036 0.0401849
Ar -1.95479 -5.69099 -0.0342983
Ar 1.89343 -1.90079 0.0123295
Ar 5.65902 -1.83379 0.0432398
Ar 1.84841 -5.66883 0.021627
Ar -0.00417961 0.0173198 2.65207
Ar 3.72877 0.0525892 2.61753
Ar -3.76951 -0.00801656 2.69915
Ar 0.0599672 3.69362 2.66173
Ar -0.0389188 -3.80068 2.64018
Ar 3.87432 3.85548 2.73722
Ar -3.75662 3.73459 2.66594
Ar -3.76678 -3.76412 2.64696
Ar 3.71504 -3.719 2.68985
Ar 0.0770009 -0.0132458 -2.63555
Ar 3.78887 0.0687519 -2.71208
Ar -3.75824 0.0106449 -2.69079
Ar -0.0467042 3.77522 -2.70087
Ar 0.0562707 -3.76137 -2.65164
Ar 3.61368 3.83436 -2.66778
Ar -3.75712 3.72105 -2.6808
Ar -3.78559 -3.77623 -2.58105
Ar 3.80389 -3.80289 -2.57539
Ar 1.95207 1.88357 5.32504
Ar -1.86392 1.89489 5.34909
Ar -1.90126 -1.92398 5.31403
Ar 1.84335 -1.89219 5.26602
Ar 1.91846 1.80459 -5.37575
Ar -1.83901 1.87371 -5.34123
Ar -1.86121 -1.87712 -5.35669
Ar 1.94463 -2.00132 -5.3013
38
Atoms. Timestep: 150000
Ar 1.91836 1.88254 -0.0492206
Ar 5.68076 1.90855 -0.0407669
Ar 1.85649 5.6618 0.0413547
Ar -1.86517 1.82864 -0.0709995
Ar -5.59073 1.75138 -0.0742374
Ar -1.99726 5.59117 -0.02085
Ar -1.85913 -1.87105 0.0643752
Ar -5.53829 -1.98973 0.0375717
Ar -1.94723 -5.56193 0.0543708
Ar 1.83974 -1.91597 -0.0350067
Ar 5.64769 -1.85402 -0.056968
Ar 1.81403 -5.67052 0.0163703
Ar 0.00344144 -0.0368628 2.69539
Ar 3.77544 -0.100626 2.69801
Ar -3.76433 0.0268792 2.71253
Ar -0.0206263 3.69768 2.5806
Ar 0.0280224 -3.70222 2.74176
Ar 3.77594 3.6257 2.6756
Ar -3.84252 3.79055 2.59723
Ar -3.77 -3.69513 2.86092
Ar 3.74559 -3.75957 2.75309
Ar -0.0643762 -0.00706648 -2.69563
Ar 3.72009 0.0729634 -2.6808
Ar -3.75258 -0.0546 -2.73784
Ar 0.00625901 3.78322 -2.69072
Ar -0.0317585 -3.8114 -2.67349
Ar 3.87264 3.90018 -2.71396
Ar -3.78464 3.74333 -2.68744
Ar -3.68848 -3.74326 -2.73119
Ar 3.72024 -3.68106 -2.76658
Ar 1.86355 1.91377 5.30794
Ar -1.86822 1.88036 5.45336
Ar -1.84711 -1.87731 5.45841
Ar 1.8838 -1.89256 5.52597
Ar 1.92736 1.9208 -5.35598
Ar -1.83435 1.95093 -5.43516
Ar -1.88044 -1.83742 -5.4419
Ar 1.8698 -1.86718 -5.31612
38
Atoms. Timestep: 160000
Ar 1.92678 1.83632 0.0438128
Ar 5.57254 2.02699 0.0128035
Ar 2.09485 5.60606 -0.018732
Ar -1.92245 1.79846 0.0156979
Ar -5.74433 1.89996 -0.079426
Ar -1.77634 5.64475 -0.0121812
Ar -1.92428 -1.88771 -0.00631361
Ar -5.65941 -1.97371 0.0267685
Ar -1.84618 -5.64748 0.0779715
Ar 1.87383 -1.81364 0.00897408
Ar 5.65555 -1.80779 0.0188326
Ar 1.94679 -5.65895 0.0224404
Ar -0.080794 -0.0167316 2.64702
Ar 3.75309 0.020036 2.6928
Ar -3.80774 0.00438926 2.60269
Ar 0.00972355 3.74303 2.6379
Ar 0.0184587 -3.73382 2.70295
Ar 3.79721 3.84585 2.7537
Ar -3.80242 3.80624 2.46373
Ar -3.70045 -3.80636 2.7084
Ar 3.84122 -3.7891 2.59358
Ar -0.0397869 -0.0311843 -2.60677
Ar 3.74225 -0.0139215 -2.60678
Ar -3.82738 0.0323508 -2.63924
Ar 0.0117966 3.72313 -2.55221
Ar 0.0568841 -3.77711 -2.70066
Ar 3.82578 3.65829 -2.77857
Ar -3.7832 3.85749 -2.57872
Ar -3.69339 -3.84734 -2.70361
Ar 3.82163 -3.79341 -2.70257
Ar 1.77207 1.86355 5.34908
Ar -1.95852 1.90561 5.27055
Ar -1.85077 -1.85117 5.39311
Ar 1.95279 -1.87757 5.29334
Ar 1.8714 1.81211 -5.35523
Ar -1.95861 1.96121 -5.28273
Ar -1.97827 -1.81408 -5.31633
Ar 1.81167 -1.90375 -5.3961
38
Atoms. Timestep: 170000
Ar 1.83933 1.90894 0.0115543
Ar 5.78252 1.93706 0.00744303
Ar 1.82624 5.70082 -0.0326102
Ar -1.89363 1.90893 0.063956
Ar -5.6904 1.9176 0.0152987
Ar -1.9072 5.65493 0.0194068
Ar -1.86836 -1.8602 0.0258815
Ar -5.76108 -1.88015 -0.129385
Ar -1.96674 -5.68003 0.00813145
Ar 1.85247 -1.81571 0.0482381
Ar 5.72358 -1.84456 -0.0573237
Ar 1.80889 -5.8056 -0.009782
Ar 0.0353711 0.057847 2.63921
Ar 3.88629 0.0357859 2.64173
Ar -3.8348 -0.0345849 2.6807
Ar 0.0250764 3.80272 2.66778
Ar -0.00289296 -3.79831 2.65911
Ar 3.76297 3.79935 2.58106
Ar -3.8494 3.80229 2.7099
Ar -3.78207 -3.80954 2.60539
Ar 3.79812 -3.7524 2.52184
Ar -0.0462401 -0.0359153 -2.61512
Ar 3.79361 0.00354721 -2.61814
Ar -3.75384 -0.0272854 -2.66064
Ar -0.0172611 3.75614 -2.63979
Ar -0.000893121 -3.80756 -2.58898
Ar 3.76448 3.76321 -2.64124
Ar -3.82094 3.75768 -2.66819
Ar -3.76116 -3.70062 -2.67752
Ar 3.82049 -3.77592 -2.51764
Ar 1.85389 1.89966 5.2985
Ar -1.87834 1.89057 5.33894
Ar -1.82398 -1.82682 5.30822
Ar 1.96169 -1.90035 5.2691
Ar 1.87491 1.82576 -5.32539
Ar -1.81696 1.84866 -5.31714
Ar -1.82786 -1.91006 -5.36286
Ar 1.8961 -2.00488 -5.25964
38
Atoms. Timestep: 180000
Ar 1.86131 1.86817 0.0172596
Ar 5.64654 1.76868 -0.018581
Ar 1.88759 5.67186 0.00747354
Ar -1.8743 1.86577 0.0322307
Ar -5.63438 1.80642 0.00848527
Ar -1.82104 5.71127 -0.0642527
Ar -1.88763 -1.89468 -0.0444415
Ar -5.62924 -1.9738 0.0178305
Ar -1.82091 -5.65042 0.080939
Ar 1.81036 -1.87101 -0.0330458
Ar 5.61532 -1.93161 0.00340723
Ar 2.08383 -5.57269 0.0111811
Ar -0.0538627 -0.0153711 2.68623
Ar 3.70938 0.0249732 2.68247
Ar -3.81935 0.0315722 2.68524
Ar 0.0169461 3.84196 2.68654
Ar 0.0320722 -3.72352 2.62932
Ar 3.79171 3.69175 2.7138
Ar -3.80245 3.92405 2.60828
Ar -3.69555 -3.74134 2.64745
Ar 3.77698 -3.76576 2.75231
Ar 0.0255364 0.0389825 -2.64638
Ar 3.69361 0.0358265 -2.70691
Ar -3.73722 -0.0599482 -2.66628
Ar 0.0480367 3.72261 -2.59134
Ar -0.014621 -3.76259 -2.68621
Ar 3.78897 3.79134 -2.69479
Ar -3.69686 3.67471 -2.64034
Ar -3.83083 -3.87767 -2.67195
Ar 3.81368 -3.71767 -2.78435
Ar 1.86624 1.81683 5.36519
Ar -1.94715 2.03831 5.29927
Ar -1.9173 -1.86357 5.41009
Ar 1.84521 -1.88191 5.37559
Ar 1.81759 1.90499 -5.42122
Ar -1.90605 1.88008 -5.32349
Ar -1.8747 -1.89015 -5.35635
Ar 1.83454 -1.91544 -5.37066
38
Atoms. Timestep: 190000
Ar 1.86034 1.89393 -0.0582737
Ar 5.64916 1.84584 -0.0357689
Ar 1.76459 5.7201 -0.0639356
Ar -1.89842 1.84861 0.0050221
Ar -5.57106 1.87188 0.0454016
Ar -2.05545 5.6438 0.0303911
Ar -1.86167 -1.87105 0.0346892
Ar -5.55784 -1.86011 0.00783272
Ar -1.94269 -5.70843 -0.0182129
Ar 1.88425 -1.83764 0.0390652
Ar 5.69337 -1.93806 0.0695547
Ar 1.84876 -5.61118 0.0465391
Ar -0.0210996 0.0286901 2.63722
Ar 3.74883 -0.0158525 2.64898
Ar -3.71488 -0.0674337 2.71518
Ar 0.0252628 3.80029 2.59691
Ar -0.0291666 -3.7163 2.65889
Ar 3.76565 3.81735 2.51783
Ar -3.69384 3.6459 2.71257
Ar -3.89766 -3.82696 2.71395
Ar 3.74353 -3.7868 2.7103
Ar 0.0125829 0.0162411 -2.63323
Ar 3.78747 -0.0600561 -2.59902
Ar -3.71706 -0.00304548 -2.72021
Ar -0.0470834 3.79803 -2.64822
Ar -0.0262534 -3.81393 -2.56945
Ar 3.73221 3.81096 -2.70403
Ar -3.82156 3.78877 -2.71484
Ar -3.77854 -3.73552 -2.68818
Ar 3.79045 -3.76263 -2.70018
Ar 1.9481 1.93517 5.23342
Ar -1.75597 1.91003 5.35789
Ar -1.96883 -1.91054 5.34731
Ar 1.82651 -1.84013 5.38502
Ar 1.93177 1.87917 -5.30995
Ar -1.80823 1.87571 -5.33463
Ar -1.79951 -1.93881 -5.39578
Ar 1.956 -1.825 -5.32006
38
Atoms. Timestep: 200000
Ar 1.90233 1.83586 -0.000631812
Ar 5.61241 1.8424 0.117422
Ar 1.83999 5.65955 -0.0412254
Ar -1.82746 1.92745 -0.0680276
Ar -5.64854 2.0031 0.00164244
Ar -1.93905 5.70668 0.00186153
Ar -1.79439 -1.84068 0.00207401
Ar -5.8717 -1.81365 0.0673383
Ar -1.86458 -5.6483 0.0760028
Ar 1.9449 -1.85662 -0.0577834
Ar 5.71359 -1.89965 0.0247496
Ar 1.96905 -5.68016 -0.0220486
Ar -0.0102231 -0.0357562 2.59485
Ar 3.74412 0.0207866 2.72707
Ar -3.78537 0.0543022 2.60493
Ar -0.103582 3.72167 2.60337
Ar 0.0748153 -3.6931 2.62154
Ar 3.68659 3.76714 2.66812
Ar -3.81456 3.81484 2.61336
Ar -3.7224 -3.73295 2.57934
Ar 3.87491 -3.76551 2.66617
Ar 0.0278961 -0.0177393 -2.59813
Ar 3.77904 0.0710429 -2.76255
Ar -3.7721 0.0330013 -2.6026
Ar 0.067444 3.75674 -2.64806
Ar 0.0449196 -3.76708 -2.60872
Ar 3.78798 3.81244 -2.59375
Ar -3.70922 3.74624 -2.80534
Ar -3.85314 -3.80041 -2.40319
Ar 3.80615 -3.74364 -2.77939
Ar 1.77091 1.8448 5.30062
Ar -1.97106 1.85145 5.35856
Ar -1.83055 -1.94434 5.28997
Ar 1.90783 -1.94262 5.3685
Ar 1.95269 1.90676 -5.34368
Ar -1.79381 1.68598 -5.36039
Ar -2.0148 -2.07276 -5.20011
Ar 1.82098 -1.80628 -5.39186
38
Atoms. Timestep: 210000
Ar 1.83825 1.86575 -0.0477593
Ar 5.69762 1.79072 0.0742646
Ar 1.81266 5.73659 -0.00649263
Ar -1.83961 1.84869 0.00575381
Ar -5.68521 1.88509 0.00236247
Ar -1.905 5.59178 0.0163463
Ar -1.84316 -1.88374 -0.00697388
Ar -5.65812 -1.87748 0.00708828
Ar -1.81293 -5.60101 0.0304374
Ar 1.85702 -1.92466 -0.064453
Ar 5.60533 -2.01779 0.104911
Ar 2.05933 -5.69266 0.12224
Ar 0.0646844 0.0423164 2.60228
Ar 3.79928 0.0135186 2.62803
Ar -3.65036 -0.0293119 2.62556
Ar -0.00744133 3.81622 2.63194
Ar -0.0141396 -3.7335 2.70293
Ar 3.74731 3.86782 2.51393
Ar -3.85648 3.70551 2.69151
Ar -3.82834 -3.79622 2.61574
Ar 3.72891 -3.73996 2.76934
Ar -0.0403381 -0.0435391 -2.69338
Ar 3.80363 -0.0415599 -2.72744
Ar -3.73312 -0.0362516 -2.64931
Ar 0.00833343 3.77525 -2.66658
Ar -0.0490174 -3.7538 -2.69974
Ar 3.84523 3.83551 -2.53212
Ar -3.80792 3.76747 -2.6548
Ar -3.82522 -3.7954 -2.65395
Ar 3.73653 -3.78031 -2.67652
Ar 1.95599 2.0311 5.29459
Ar -1.78831 1.83241 5.2578
Ar -1.98178 -1.95773 5.37717
Ar 1.79395 -1.75183 5.4101
Ar 1.87761 2.01672 -5.26566
Ar -1.8888 1.8389 -5.31629
Ar -1.88908 -1.9002 -5.40352
Ar 1.87471 -1.90343 -5.41934
38
Atoms. Timestep: 220000
Ar 1.9147 1.87506 -0.000496456
Ar 5.70977 1.99744 -0.0328968
Ar 1.80401 5.65103 0.00623171
Ar -1.86517 1.80106 -0.0344718
Ar -5.69815 1.98536 -0.0683062
Ar -1.94513 5.59687 0.0285173
Ar -1.84608 -1.88873 -0.0209039
Ar -5.61546 -1.79883 0.0638947
Ar -1.88958 -5.6932 0.0195342
Ar 1.86791 -1.85547 0.0420464
Ar 5.64518 -1.85884 0.000223666
Ar 1.93818 -5.6753 -0.0217751
Ar 0.0486941 -0.0144902 2.64654
Ar 3.74913 0.0216161 2.63994
Ar -3.71173 0.00822118 2.64801
Ar -0.0947189 3.72187 2.69187
Ar -0.00651785 -3.77579 2.80071
Ar 3.7281 3.85859 2.64299
Ar -3.77453 3.73581 2.71169
Ar -3.76202 -3.77373 2.7231
Ar 3.71508 -3.83413 2.70301
Ar 0.0523184 -0.0458994 -2.64631
Ar 3.80994 -0.012235 -2.69678
Ar -3.73574 0.0749662 -2.7622
Ar -0.0424516 3.73298 -2.69989
Ar -0.00292483 -3.77435 -2.64355
Ar 3.76813 3.86 -2.69413
Ar -3.7562 3.78828 -2.78346
Ar -3.76117 -3.69539 -2.63889
Ar 3.76321 -3.83252 -2.63053
Ar 1.87163 1.9052 5.28911
Ar -1.89603 1.80759 5.42393
Ar -1.86182 -1.85893 5.38116
Ar 1.88873 -1.87595 5.36563
Ar 1.84172 1.84318 -5.33691
Ar -1.86853 1.86412 -5.45458
Ar -1.85883 -1.91739 -5.36476
Ar 1.87832 -1.94706 -5.29731
38
Atoms. Timestep: 230000
Ar 1.89265 1.92022 0.0172066
Ar 5.66545 1.95082 0.0333121
Ar 2.05963 5.70476 0.0483979
Ar -1.92183 1.90865 0.0243523
Ar -5.73846 1.90492 -0.112346
Ar -1.88625 5.66014 -0.101109
Ar -1.8596 -1.85892 -0.0327386
Ar -5.71742 -1.85719 0.0480757
Ar -1.73215 -5.63417 0.0254606
Ar 1.83431 -1.8996 0.0314502
Ar 5.61462 -1.80835 -0.0212542
Ar 2.0072 -5.72078 -0.0345973
Ar 0.000743446 -0.0163033 2.62414
Ar 3.74736 0.00551241 2.67988
Ar -3.78772 0.0169441 2.67557
Ar -0.0462491 3.78036 2.62767
Ar 0.050208 -3.75791 2.70975
Ar 3.80858 3.76697 2.76432
Ar -3.85543 3.77761 2.56577
Ar -3.76232 -3.71128 2.67115
Ar 3.79105 -3.75061 2.63041
Ar -0.00316252 0.0147103 -2.62407
Ar 3.69095 0.00922271 -2.64433
Ar -3.7877 -0.0372517 -2.64098
Ar 0.0214697 3.74134 -2.63242
Ar 0.000534702 -3.79622 -2.70874
Ar 3.81663 3.74101 -2.73087
Ar -3.81294 3.70018 -2.73144
Ar -3.82092 -3.79584 -2.57542
Ar 3.80373 -3.72044 -2.67069
Ar 1.78489 1.82025 5.30701
Ar -1.91621 1.8256 5.31292
Ar -1.87466 -1.88618 5.36345
Ar 1.95467 -1.86732 5.35662
Ar 1.87866 1.82877 -5.34025
Ar -1.81379 1.83181 -5.36914
Ar -1.9162 -1.86226 -5.21804
Ar 1.83167 -1.92818 -5.32847
38
Atoms. Timestep: 240000
Ar 1.86596 1.88524 -0.016684
Ar 5.63547 1.8736 -0.0237724
Ar 1.91554 5.66143 -0.11001
Ar -1.85996 1.89477 -0.0385569
Ar -5.67877 1.79318 -0.00757298
Ar -1.89727 5.69649 -0.0461714
Ar -1.88404 -1.879 0.0311658
Ar -5.59174 -1.96734 -0.0200005
Ar -1.86559 -5.69108 0.0680107
Ar 1.89886 -1.81484 0.000375776
Ar 5.69184 -1.8656 0.00345362
Ar 1.8303 -5.74379 -0.00219642
Ar 0.031816 0.0632051 2.66642
Ar 3.74376 0.0213537 2.69559
Ar -3.75486 -0.0316534 2.6604
Ar 0.00764189 3.79179 2.55825
Ar -0.00874109 -3.6306 2.68312
Ar 3.7917 3.78999 2.7659
Ar -3.79815 3.71597 2.6359
Ar -3.73824 -3.80779 2.64162
Ar 3.70275 -3.78048 2.58325
Ar -0.014359 -0.0535556 -2.64178
Ar 3.8034 0.0206656 -2.61174
Ar -3.69384 0.0196289 -2.62451
Ar -0.012312 3.78025 -2.68042
Ar -0.00654507 -3.74219 -2.60535
Ar 3.72975 3.74443 -2.74132
Ar -3.91295 3.76809 -2.68057
Ar -3.695 -3.73243 -2.69416
Ar 3.84686 -3.83545 -2.60865
Ar 1.93563 1.93022 5.41373
Ar -1.96508 1.8563 5.29561
Ar -1.92368 -1.94667 5.34946
Ar 1.9123 -1.7982 5.34973
Ar 1.86293 1.7617 -5.30321
Ar -1.87452 1.9895 -5.31808
Ar -1.95725 -1.80495 -5.35494
Ar 1.92838 -1.9312 -5.27228
38
Atoms. Timestep: 250000
Ar 1.82868 1.90393 0.00459735
Ar 5.64406 1.95796 0.00657152
Ar 1.83455 5.62973 -0.0309107
Ar -1.85213 1.87519 0.0258764
Ar -5.62762 1.8597 -0.0255556
Ar -1.88479 5.68716 -0.080882
Ar -1.87189 -1.84343 0.0475489
Ar -5.64291 -1.86791 -0.0616766
Ar -1.97823 -5.67975 0.0186558
Ar 1.90128 -1.77082 -0.0385529
Ar 5.67654 -1.80214 0.0158645
Ar 1.84109 -5.71607 0.0477614
Ar -0.020612 -0.0208245 2.72918
Ar 3.696 0.0433397 2.61602
Ar -3.77742 -0.00696266 2.69954
Ar 0.0431354 3.75485 2.68129
Ar 0.00424078 -3.75461 2.5819
Ar 3.73365 3.82174 2.65709
Ar -3.75764 3.71803 2.61501
Ar -3.72617 -3.71002 2.67146
Ar 3.74189 -3.77028 2.588
Ar 0.0258598 0.0249828 -2.65411
Ar 3.79481 0.00562715 -2.61112
Ar -3.69875 -0.0184909 -2.66089
Ar -0.0182609 3.72688 -2.74748
Ar 0.0180744 -3.77242 -2.57108
Ar 3.66874 3.75606 -2.72979
Ar -3.79775 3.76448 -2.67244
Ar -3.74786 -3.72772 -2.64104
Ar 3.81236 -3.78646 -2.62522
Ar 1.87739 1.90429 5.44038
Ar -1.93305 1.90537 5.38269
Ar -1.81184 -1.93225 5.30704
Ar 1.95096 -1.9825 5.30407
Ar 1.87834 1.80688 -5.35885
Ar -1.92154 1.93094 -5.37163
Ar -1.80761 -1.92077 -5.27784
Ar 1.90644 -1.99274 -5.28148
38
Atoms. Timestep: 260000
Ar 1.79536 1.87527 0.00424948
Ar 5.59486 1.85309 -0.0631732
Ar 1.9952 5.69269 0.0443473
Ar -1.89498 1.83301 -0.00458056
Ar -5.72878 1.83863 -0.0454487
Ar -1.73433 5.68884 -0.0089832
Ar -1.87075 -1.88305 -0.0360276
Ar -5.71686 -1.95958 -0.0558559
Ar -1.79695 -5.63409 0.016876
Ar 1.78921 -1.89075 0.111879
Ar 5.63001 -1.94318 -0.0913703
Ar 1.9989 -5.55188 -0.010623