38
Atoms. Timestep: 0
Ar 1.668 1.873 0
Ar 5.651 1.903 0.003
Ar 1.878 5.656 -0.01
Ar -1.867 1.863 -0.007
Ar -5.65 1.873 -0.014
Ar -1.898 5.645 -0.014
Ar -1.857 -1.873 0
Ar -5.64 -1.903 -0.003
Ar -1.867 -5.656 0.01
Ar 1.878 -1.863 0.007
Ar 5.661 -1.873 0.014
Ar 1.909 -5.645 0.014
Ar 0.002 0.007 2.642
Ar 3.751 0.017 2.659
Ar -3.75 -0.003 2.646
Ar -0.008 3.756 2.646
Ar 0.012 -3.745 2.659
Ar 3.761 3.786 2.656
Ar -3.778 3.766 2.646
Ar -3.757 -3.773 2.663
Ar 3.781 -3.752 2.673
Ar 0.009 -0.007 -2.642
Ar 3.761 0.003 -2.646
Ar -3.74 -0.017 -2.659
Ar -0.002 3.746 -2.659
Ar 0.019 -3.756 -2.646
Ar 3.768 3.773 -2.663
Ar -3.771 3.752 -2.673
Ar -3.75 -3.786 -2.656
Ar 3.788 -3.766 -2.646
Ar 1.871 1.897 5.329
Ar -1.888 1.886 5.325
Ar -1.878 -1.873 5.332
Ar 1.881 -1.863 5.339
Ar 1.888 1.873 -5.332
Ar -1.871 1.863 -5.339
Ar -1.861 -1.897 -5.329
Ar 1.898 -1.886 -5.325
38
Atoms. Timestep: 10000
Ar 1.108 3.26574 -0.756701
Ar 6.79491 1.8012 1.3289
Ar 1.42837 7.16013 -2.80763
Ar -2.07975 1.08408 -0.192057
Ar -8.2717 1.54731 -1.14361
Ar -2.44027 5.03095 -1.19384
Ar -2.70337 -3.01869 0.102617
Ar -4.81405 -5.23151 2.01582
Ar -6.9047 -3.74604 -1.32679
Ar 1.16396 -2.20373 0.608902
Ar 5.06588 -2.78763 1.09614
Ar 3.23471 -6.00491 -1.66082
Ar 0.877797 1.17864 2.64597
Ar 4.47785 1.00984 3.87772
Ar -2.37697 0.0408928 3.52894
Ar 0.47581 6.48671 0.96954
Ar -0.349266 -5.74606 -0.47893
Ar 3.08059 4.24063 2.33323
Ar -4.89476 3.28646 0.992512
Ar -0.762335 -4.3016 3.00674
Ar 2.41101 -5.81694 1.9999
Ar 0.201383 -0.359251 -2.08192
Ar 3.47578 0.58731 0.00118482
Ar -5.04788 -0.587592 1.13225
Ar 2.8753 1.5788 -4.11301
Ar -0.090716 -3.91393 -3.81119
Ar 4.62746 4.40444 -0.945983
Ar -4.6406 1.91668 -2.69918
Ar -4.00123 -5.1058 -4.40598
Ar 3.61793 -2.18144 -2.17616
Ar 1.53292 3.01904 5.95487
Ar -1.56329 3.84515 2.69445
Ar 0.472871 -0.430043 7.14344
Ar 2.55808 -2.09171 3.80178
Ar 6.10964 0.982501 -2.49068
Ar -1.27632 2.69341 -3.84961
Ar -3.18462 -1.39115 -3.54488
Ar -0.186393 -0.240874 -5.55591
38
Atoms. Timestep: 20000
Ar 0.542983 3.27818 -0.89833
Ar 6.28791 2.01205 1.30756
Ar 1.86112 5.89588 -3.09652
Ar -2.77208 1.11452 -0.670232
Ar -6.72058 1.78609 0.739335
Ar -1.72474 6.38646 -2.41975
Ar -1.53548 -2.21065 0.17373
Ar -3.65663 -4.22141 2.43235
Ar -5.09218 -1.56608 -0.356689
Ar 2.41307 -2.38592 0.658719
Ar 6.3789 -1.75808 0.298674
Ar 3.24817 -5.72747 -1.04808
Ar 0.412401 0.400288 1.92792
Ar 3.78849 -0.0960293 3.47232
Ar -3.66493 0.909059 2.62684
Ar 0.911651 6.73067 0.525112
Ar -1.07313 -7.35446 -1.89825
Ar 2.79829 3.47404 2.62909
Ar -4.09328 4.7554 -0.0123872
Ar 0.180624 -5.61964 1.04756
Ar 3.69467 -3.80245 3.72924
Ar 0.405307 -0.137936 -2.14498
Ar 3.23553 0.862528 -0.250513
Ar -5.87814 -1.85149 4.21524
Ar 2.39385 2.23935 -3.96518
Ar 0.265405 -3.72589 -2.50914
Ar 4.1838 4.25256 -0.893629
Ar -5.82545 1.60366 -2.93374
Ar -3.30931 -4.66527 -1.61637
Ar 3.75999 -1.86382 -2.87092
Ar 0.0616942 1.7597 5.20666
Ar -0.951789 3.76958 2.31426
Ar -2.92301 -3.11732 6.08537
Ar 0.185542 -2.86292 4.03415
Ar 5.92823 1.13102 -2.92206
Ar -1.3411 2.63246 -3.85095
Ar -2.73814 -1.37945 -3.55959
Ar 0.364338 -0.646226 -5.50684
38
Atoms. Timestep: 30000
Ar 1.26594 4.16959 -0.747199
Ar 6.36156 1.13579 1.69927
Ar 2.95716 6.29066 -3.65599
Ar -5.37297 1.3796 -0.756109
Ar -3.67037 3.00536 2.11725
Ar -4.07918 4.84702 -4.13855
Ar -2.34174 -1.23214 0.107981
Ar -2.28743 -7.4382 1.4861
Ar -6.05866 -2.3144 0.624507
Ar 1.66717 -1.85536 0.584484
Ar 5.39641 -2.13503 0.159993
Ar 2.66602 -5.36267 -0.47574
Ar -0.20358 1.51372 1.56149
Ar 3.09647 -0.144909 3.64594
Ar -2.75649 -3.04115 6.67691
Ar -1.15619 6.76242 -0.848617
Ar -0.465985 -7.2736 -1.76351
Ar 3.02577 3.47047 2.83559
Ar -2.35844 3.35591 -1.08955
Ar -0.349688 -4.74775 1.33621
Ar 3.29305 -4.01249 3.04273
Ar 0.0130494 0.384201 -2.00793
Ar 2.99721 1.19508 -0.0508344
Ar -3.18109 -0.187232 4.16908
Ar 3.1006 2.60733 -3.42647
Ar -0.226428 -3.45337 -2.31108
Ar 4.85101 4.86442 -0.677842
Ar -2.74739 1.35347 -4.32431
Ar -3.41272 -4.57778 -0.76324
Ar 3.09758 -1.64483 -2.7095
Ar 0.231331 2.11411 5.04038
Ar -0.335746 5.12784 2.6215
Ar -3.43108 -3.89291 2.93096
Ar -0.175439 -1.94069 3.70517
Ar 6.29878 0.849235 -2.27544
Ar -0.400367 4.55676 -4.05034
Ar -4.41641 -1.83748 -2.88767
Ar -0.889727 -1.89 -5.38561
38
Atoms. Timestep: 40000
Ar 1.25446 4.09769 -0.79742
Ar 5.16916 -1.77244 1.51031
Ar 1.47106 6.34995 -4.13661
Ar -6.37312 1.97116 0.375878
Ar -4.10049 5.28156 1.89195
Ar -5.18111 5.27457 -2.24331
Ar -1.40507 -1.57652 -0.293399
Ar -3.17056 -7.13697 1.02383
Ar -5.29603 -2.195 -0.096497
Ar 1.94104 -2.12406 0.313948
Ar 4.97549 -4.29334 -2.45653
Ar 3.401 -5.55308 0.723387
Ar 0.0784794 1.31414 1.58689
Ar 3.15988 0.184134 4.14467
Ar -2.8159 -0.811528 5.83081
Ar -1.75862 6.53095 -0.824605
Ar 0.527375 -8.06113 -0.407154
Ar 2.76658 3.6663 2.77555
Ar -2.57557 3.07999 -0.323386
Ar -0.295979 -4.70625 1.23546
Ar 3.30351 -3.67959 4.0602
Ar 0.27061 0.976373 -1.95436
Ar 3.51306 1.28273 0.230071
Ar -3.55916 0.315277 2.15782
Ar 3.49661 2.57004 -3.41279
Ar 1.10129 -4.68013 -2.36796
Ar 4.86183 5.29374 -0.411362
Ar -4.05506 0.658392 -2.47516
Ar -2.69976 -4.60961 -1.70512
Ar 2.74036 -1.22487 -3.37744
Ar 0.386719 1.64483 5.97696
Ar -0.624814 4.55989 2.53256
Ar -3.29558 -3.28401 2.81822
Ar 0.177655 -1.74931 3.46283
Ar 6.23608 0.0613899 -1.81048
Ar -1.49962 3.98841 -3.58161
Ar -1.31525 -2.61482 -4.46719
Ar -0.80854 0.972162 -5.50899
38
Atoms. Timestep: 50000
Ar 1.33508 4.06485 -0.503631
Ar 5.37405 -2.19769 -0.965784
Ar 2.50581 6.25619 -3.79451
Ar -5.72145 0.85119 0.157519
Ar -4.67774 4.23836 2.41182
Ar -5.3039 4.50216 -1.7823
Ar -2.27971 -1.16008 0.163807
Ar -5.8871 -5.30982 0.0879186
Ar -4.84559 -2.27653 -1.90864
Ar 1.33891 -2.24529 -0.4011
Ar 5.41962 -3.62982 -4.47916
Ar 3.65195 -3.19571 2.54557
Ar 0.693011 0.673828 2.02074
Ar 4.1155 0.37343 3.64429
Ar -3.35962 -1.67431 5.90473
Ar -2.10967 6.3045 0.361053
Ar 1.82124 -5.69684 0.60155
Ar 3.03112 3.80598 2.67428
Ar -2.10785 2.55944 0.0324619
Ar -0.458989 -6.14563 3.48983
Ar 2.06143 -2.46815 5.90523
Ar 0.0992411 0.790183 -2.0124
Ar 3.52993 1.0718 -0.40254
Ar -2.88275 0.643193 3.15004
Ar 2.82052 2.57091 -3.77687
Ar 1.9894 -4.57182 -3.16269
Ar 5.35909 4.49665 -0.373046
Ar -3.45372 0.881476 -2.91608
Ar -2.24687 -4.84877 -0.138187
Ar 2.71872 -1.09153 -3.90256
Ar 0.176128 0.782932 5.43246
Ar -1.01868 3.86537 3.08509
Ar -4.71723 -2.69707 2.44189
Ar -0.872662 -2.58961 3.23155
Ar 5.92344 0.759855 -3.12942
Ar -0.737824 3.87775 -3.9532
Ar -1.02229 -2.39988 -3.45241
Ar -0.258536 0.829512 -6.28729
38
Atoms. Timestep: 60000
Ar 1.43615 4.3736 0.213565
Ar 5.88274 -2.07885 -0.888229
Ar 1.26593 7.21331 -2.76984
Ar -5.34883 0.0434858 -1.06063
Ar -5.08725 2.90317 1.07225
Ar -4.3228 4.08251 -2.56247
Ar -1.42732 -1.66016 -0.287847
Ar -3.66064 -4.13679 5.02221
Ar -6.61066 -4.60221 -0.74341
Ar 2.40409 -2.18324 -0.0740449
Ar 3.49002 -4.26014 -2.95892
Ar 2.63881 -4.39546 2.86832
Ar 0.752223 1.03205 1.38073
Ar 3.44938 -0.878033 3.0514
Ar -2.09041 -1.35188 6.47665
Ar -1.54761 5.94618 -0.694056
Ar 1.29506 -6.08488 -0.669454
Ar 3.37106 3.09384 3.14402
Ar -1.86015 2.40161 -0.35561
Ar -1.4247 -4.84275 1.90899
Ar 1.86252 -2.9319 6.46385
Ar 0.74362 0.79104 -2.23212
Ar 4.36806 1.35031 -0.423535
Ar -2.74377 0.390136 2.95495
Ar 2.80151 3.35358 -3.26374
Ar -0.0254237 -2.56941 -3.6008
Ar 5.33088 4.91062 0.329547
Ar -2.56806 0.819167 -3.51419
Ar -2.61369 -4.67822 -1.96691
Ar 3.59187 -0.813747 -3.7184
Ar 0.63901 1.13679 5.40613
Ar -0.967976 3.69627 3.08008
Ar -4.7687 -2.85725 1.60647
Ar -0.0633971 -2.07717 3.50551
Ar 6.60916 1.96699 -3.35811
Ar -0.818807 3.95319 -3.6332
Ar -4.60565 -2.35439 -3.99292
Ar 0.625754 1.29963 -5.71627
38
Atoms. Timestep: 70000
Ar 1.08744 4.59886 -0.246367
Ar 5.75169 -1.88531 0.564293
Ar 1.75362 4.14309 -5.18133
Ar -5.82842 0.0424296 0.568591
Ar -5.82992 3.62603 0.783023
Ar -5.02083 3.30506 -2.91135
Ar -1.6534 -1.51041 -0.827461
Ar -0.975229 -5.12784 4.11787
Ar -3.22325 -5.9781 1.01442
Ar 2.13389 -1.5882 -0.229568
Ar 3.68591 -4.52701 -1.82069
Ar 3.0081 -4.36776 2.0793
Ar 0.4624 1.18311 1.23986
Ar 3.4173 -0.729122 3.23177
Ar -2.36777 -1.79002 5.89534
Ar -2.69955 6.4285 -0.17299
Ar -2.9259 -3.87316 -3.5572
Ar 2.72511 3.39472 2.89278
Ar -2.62011 2.16594 -0.388723
Ar 0.0126923 -4.66375 -0.267453
Ar 1.32824 -2.80689 5.75229
Ar 1.38115 1.36323 -2.43419
Ar 4.0219 1.36883 0.196074
Ar -2.95576 0.737449 2.93342
Ar 4.83599 2.8454 -3.2062
Ar 0.774439 -2.73978 -3.41026
Ar 4.78006 4.92704 0.203521
Ar -1.52378 0.1221 -4.18929
Ar -4.76565 -0.366329 -2.8033
Ar 4.61068 -0.986896 -3.00685
Ar -0.0142253 0.968722 4.83972
Ar -1.36446 4.15683 2.77413
Ar -4.47509 -2.92122 2.8555
Ar -0.347345 -1.97441 2.65928
Ar 7.67926 1.29821 -0.359145
Ar -1.46336 4.14708 -3.19374
Ar -5.45294 -3.36276 -0.591659
Ar 2.05911 0.377352 -5.8034
38
Atoms. Timestep: 80000
Ar 1.12445 4.8583 0.640954
Ar 6.26357 -1.88383 0.766378
Ar 2.49334 2.55822 -6.44038
Ar -5.78797 0.989325 -1.67762
Ar -5.27889 2.61017 1.5314
Ar -4.8813 4.4768 -2.32493
Ar -1.72577 -0.977197 -0.590344
Ar -0.300106 -5.80979 3.21414
Ar -2.96986 -4.15666 1.43688
Ar 2.69238 -1.63494 0.00217624
Ar 5.57281 -4.98027 -1.68123
Ar 3.873 -4.65333 2.37595
Ar 0.733841 1.1395 1.56912
Ar 3.6567 -0.468804 3.53351
Ar -3.55963 -2.19421 4.63005
Ar -2.72668 6.24113 0.396147
Ar -1.66649 -3.94317 -2.84215
Ar 2.69029 3.12339 3.76336
Ar -2.2048 2.63496 -0.615578
Ar 0.571672 -4.66077 -0.0692735
Ar 1.5093 -2.80155 5.41023
Ar 0.628998 0.849558 -2.1809
Ar 4.33144 1.70629 0.492979
Ar -2.56227 0.482908 2.70867
Ar 3.798 3.2812 -2.81969
Ar 1.97695 -3.97908 -3.32135
Ar 4.88268 5.39037 0.647897
Ar -3.29685 -0.372521 -4.08055
Ar -8.51164 -1.3461 -1.7041
Ar 3.83092 -0.62685 -3.72256
Ar 0.0723588 0.994927 5.26338
Ar -1.68097 4.07534 3.24798
Ar -5.84776 -1.19663 1.75072
Ar 0.114406 -2.14795 2.35498
Ar 7.07691 1.95587 -2.08068
Ar -0.224662 4.79991 -2.85779
Ar -4.86063 -3.20675 -1.60725
Ar 0.194236 -1.12677 -5.12051
38
Atoms. Timestep: 90000
Ar 0.545962 4.14514 -0.836657
Ar 7.21273 -1.20589 1.74456
Ar 1.05892 1.60854 -6.05246
Ar -5.88064 0.823199 1.26449
Ar -4.61079 5.30276 1.93014
Ar -5.70409 4.21205 -2.4339
Ar -2.783 -1.10337 0.0472923
Ar -1.9842 -5.66383 4.00119
Ar -5.32811 -6.00382 1.4128
Ar 1.13739 -2.19652 -1.03007
Ar 4.78376 -1.48331 -2.21962
Ar 2.11351 -4.70858 1.77303
Ar 0.439761 0.765216 0.863851
Ar 2.85665 -1.09035 2.51159
Ar -2.14119 -2.53516 6.01973
Ar -2.28794 5.91686 -1.22614
Ar -1.52719 -3.38445 -3.38014
Ar 2.78211 2.96697 2.93714
Ar -2.6523 2.43375 -0.570668
Ar -1.03852 -5.03858 0.0258751
Ar 0.64094 -4.63599 6.3117
Ar 2.10727 1.00626 -2.71629
Ar 4.80571 1.43564 -0.262567
Ar -2.99203 0.748445 3.58872
Ar 3.79871 4.55924 -2.76788
Ar 2.63299 -5.31055 -3.67631
Ar 4.95627 5.311 0.375251
Ar -1.4666 0.34894 -3.23341
Ar -5.14888 -3.22532 -1.34937
Ar 5.20877 1.86377 -5.05487
Ar 0.471473 0.66439 5.45259
Ar -1.20964 3.98028 2.42134
Ar -4.27289 -2.82952 3.0138
Ar -0.688509 -2.32935 2.5874
Ar 8.85395 2.80694 1.00576
Ar -1.79455 3.63241 -4.13608
Ar -5.10598 0.560228 -2.46266
Ar 2.21217 -2.34643 -5.87914
38
Atoms. Timestep: 100000
Ar -0.349731 5.61954 -1.11637
Ar 3.94024 -3.02508 1.15433
Ar 4.10226 5.30189 -3.85577
Ar -6.03236 0.663961 0.534876
Ar -4.35086 4.33586 3.31594
Ar -4.1679 1.39173 -3.06324
Ar -2.67276 -0.934514 -0.214591
Ar -2.60069 -4.37303 2.37791
Ar -1.88439 -7.5095 -0.0876563
Ar 1.24017 -1.35396 -1.25589
Ar 5.94226 -1.55536 -2.11177
Ar 1.02903 -5.48864 1.68614
Ar 0.578219 1.85249 1.01393
Ar 3.76136 -0.0949852 4.12896
Ar -1.0192 -2.47672 5.75489
Ar -4.28016 6.34354 -2.23138
Ar -1.84695 -1.76448 -3.82434
Ar 3.26691 3.64038 3.11675
Ar -2.71269 3.06385 0.0189975
Ar -1.14541 -4.17228 -0.889058
Ar 2.48478 -3.32622 5.48997
Ar 2.89444 1.20674 -3.38052
Ar 4.05441 0.518655 0.70321
Ar -2.77935 0.928042 2.95081
Ar 6.25045 2.36407 -2.33606
Ar 2.91765 -4.71022 -2.04931
Ar 2.90926 4.20657 -0.576247
Ar -0.633824 1.73233 -2.60283
Ar -5.00952 -4.61518 -0.227902
Ar 0.291984 0.816701 -5.9121
Ar 0.03641 1.23122 5.24616
Ar -0.237911 5.53372 2.5174
Ar -5.07745 -2.02346 4.02482
Ar -0.108712 -1.59371 2.44188
Ar 7.19934 -0.530285 2.74226
Ar -2.40653 3.23071 -5.60645
Ar -5.76494 -2.07684 -2.7805
Ar 2.18418 -2.35654 -5.09724
38
Atoms. Timestep: 110000
Ar -1.83522 5.8597 0.858547
Ar 3.52396 -3.54834 0.260433
Ar 1.42022 5.19456 -4.14433
Ar -6.17337 -0.691946 -1.35421
Ar -2.7355 3.87301 4.13688
Ar -2.68484 0.845368 -2.76855
Ar -2.98464 -0.826608 0.561991
Ar -2.08504 -3.87851 2.78373
Ar -4.03951 -3.17348 6.1588
Ar 1.72894 -0.820274 -1.97893
Ar 5.10099 -2.346 -2.96983
Ar 0.825832 -6.67695 -0.874165
Ar -0.488301 2.1165 1.83706
Ar 3.04044 -2.82109 4.09355
Ar 1.7592 0.56134 4.87656
Ar -2.16317 4.50744 -2.91617
Ar -0.946053 -2.13113 -4.347
Ar 5.70271 2.55795 2.60659
Ar -3.81215 2.81554 0.323798
Ar -0.422926 -3.38638 -0.675073
Ar -0.373312 -4.08996 5.92721
Ar 3.49124 2.17446 -3.95308
Ar 2.8708 1.32284 0.771777
Ar -5.47855 1.32871 3.58351
Ar 5.83164 1.17118 -1.06793
Ar 1.93051 -4.30411 -3.79958
Ar 3.68455 4.37955 -0.859915
Ar 0.410191 2.68404 -1.67212
Ar -3.15698 -6.08659 0.116127
Ar 0.11244 1.74218 -5.27741
Ar -1.91825 -0.64506 4.17455
Ar 2.33905 3.9979 2.72269
Ar -5.6294 -2.59977 2.34707
Ar 0.854909 -1.35081 1.9024
Ar 5.9 -1.08832 1.51698
Ar -2.51223 7.61816 -4.88768
Ar -3.8064 -3.40294 -2.24489
Ar 2.7202 -0.881169 -5.76936
38
Atoms. Timestep: 120000
Ar 0.244781 5.32826 -0.402899
Ar 3.97061 -4.5763 -0.821834
Ar 0.206321 5.40127 -4.24525
Ar -5.20834 7.02853 -0.282571
Ar -2.65416 5.43836 1.63571
Ar -3.88181 -0.127097 -2.02677
Ar -1.69484 -1.56718 0.500035
Ar -1.44203 -4.51284 3.02707
Ar -4.18752 -2.11176 5.38997
Ar 1.50646 -1.25603 -2.02832
Ar 5.05553 -0.877505 -0.484484
Ar 2.26602 -7.97816 -1.05039
Ar -0.707291 1.9357 1.80143
Ar 0.672741 -4.74582 5.83391
Ar 2.75389 1.17047 3.46157
Ar -2.97176 5.10765 -2.3278
Ar -0.997772 -2.43326 -4.16574
Ar 2.92049 4.48937 1.9449
Ar -4.66952 2.82722 0.29623
Ar 0.00776983 -4.59235 -0.493864
Ar 2.14149 -5.9491 2.13625
Ar 2.5617 2.06179 -3.89197
Ar 2.5086 1.62542 -0.0940529
Ar -4.08742 0.77864 3.22277
Ar 6.56059 3.22321 0.0468101
Ar 2.32793 -4.29591 -4.17392
Ar 3.66034 4.97732 -1.64181
Ar -0.720103 2.03408 -1.82558
Ar -1.4943 -7.60777 0.648592
Ar -1.27947 0.816982 -5.36263
Ar 0.0704183 -0.94995 4.04876
Ar 0.382699 3.06102 5.01572
Ar -5.98969 -1.90463 1.36257
Ar 1.86394 -2.09239 1.2142
Ar 3.60565 -2.48041 4.43658
Ar -1.84877 8.62418 -4.75382
Ar -3.65581 -4.9287 -0.0824332
Ar 2.20464 -0.941299 -5.86695
38
Atoms. Timestep: 130000
Ar 2.84367 4.03209 1.78703
Ar 2.26928 -3.64267 -1.00122
Ar 3.13923 2.69464 -3.11469
Ar -3.60776 2.79674 0.271664
Ar -4.89866 4.95126 4.37621
Ar -5.50828 -1.45659 -2.60192
Ar -0.450508 -0.0129016 0.682829
Ar -3.10795 -5.23891 4.95126
Ar -5.13174 -1.49851 5.21649
Ar 1.18033 -0.680527 -2.71186
Ar 6.15489 -2.28647 0.782287
Ar 5.59636 -3.79914 -2.69702
Ar 0.298763 3.19216 -0.886274
Ar -0.993406 -1.68497 4.44987
Ar 5.22 0.935142 3.2192
Ar -2.99441 4.43549 -2.90778
Ar -1.53141 -0.925208 -5.51228
Ar 2.08409 6.29723 -0.867673
Ar -6.25931 0.287781 1.69943
Ar -0.616802 -4.22939 1.69221
Ar 2.95622 -5.52304 2.08561
Ar 5.21292 -0.365329 -2.98876
Ar 3.30164 1.01972 0.133974
Ar -3.16884 1.33106 3.48406
Ar 5.68259 3.63404 -0.438399
Ar -0.174871 -5.38304 -3.89352
Ar 1.45351 5.80942 -4.74255
Ar -2.52196 0.615542 -2.23233
Ar -4.55256 -5.15342 -2.6039
Ar -0.516736 2.59274 -5.18279
Ar 1.50541 1.11656 3.86613
Ar -0.830182 4.01903 2.81441
Ar -3.71546 -2.0916 1.82143
Ar 2.68021 -2.01639 2.48177
Ar 1.56129 -4.29946 5.1179
Ar -3.11477 6.55496 0.0919803
Ar -1.86134 -2.84721 -1.4337
Ar 2.41857 -3.17984 -5.20908
38
Atoms. Timestep: 140000
Ar 5.7385 2.38207 3.72566
Ar 1.34273 -0.806251 -0.824098
Ar 3.12758 2.28345 -1.98751
Ar -4.63726 1.75205 -0.711869
Ar -0.372614 3.89813 2.33785
Ar -6.20924 -2.28334 -2.0523
Ar -1.05962 -0.150339 1.84517
Ar -4.17802 -5.37766 1.30515
Ar -6.65517 -3.67387 3.79644
Ar 0.486728 -0.247618 -4.15385
Ar 4.57971 -0.763787 0.68477
Ar 3.04838 -3.84571 0.328312
Ar -0.39993 2.17487 -1.15953
Ar -2.16436 -2.67435 4.02189
Ar 5.07938 -1.57911 4.21472
Ar -2.86825 3.08548 -3.78073
Ar -2.13502 -2.41968 -5.43504
Ar 2.02415 4.83351 -0.0289464
Ar -3.60411 2.083 2.99991
Ar -0.535647 -3.52959 0.530373
Ar 6.59829 -3.37821 1.59612
Ar 5.69562 3.57642 0.14931
Ar 2.44913 1.86005 1.76741
Ar -1.14325 0.855133 5.44315
Ar 3.29334 5.64347 -3.92515
Ar 0.340651 -3.67979 -2.91551
Ar 0.56915 3.31786 -5.53341
Ar -5.07339 0.347712 -4.46322
Ar -3.28494 -4.42118 -2.03305
Ar -1.79305 0.933289 -6.69765
Ar 2.27389 1.1014 5.16042
Ar 2.64063 5.52703 3.747
Ar -4.40357 -1.58339 1.1585
Ar 1.42908 -2.15888 3.42186
Ar -0.763874 -6.06176 3.18321
Ar -1.27749 6.09761 -1.18309
Ar -2.03918 -0.999592 -1.68601
Ar 3.88304 -2.11743 -2.84623
38
Atoms. Timestep: 150000
Ar 7.96852 -0.00555629 2.40948
Ar 1.31853 -0.63869 -1.30492
Ar 3.07167 3.07125 -2.13156
Ar -3.75871 2.37037 -0.541766
Ar -0.951327 3.53904 2.65284
Ar -3.07123 -3.74402 -3.42449
Ar -1.69239 -0.106382 0.884821
Ar -4.68586 -4.50561 1.14371
Ar -5.07167 -0.669847 2.93601
Ar 1.2339 0.244661 -5.57782
Ar 4.78995 -0.471342 0.661627
Ar 1.30439 -5.22123 2.97036
Ar -0.433091 2.89708 -1.38472
Ar -1.88261 -3.25598 3.32101
Ar 4.64548 -3.88235 4.1583
Ar -3.53757 2.85203 -4.34963
Ar -1.7198 -2.10098 -6.44914
Ar 1.86555 5.53437 0.553983
Ar -4.3439 2.61803 3.52645
Ar -1.0978 -3.8032 -0.324099
Ar 2.61586 -4.11411 -0.360861
Ar 5.13419 3.76476 2.68901
Ar 1.96324 1.75001 1.51424
Ar -1.59075 0.134931 4.63144
Ar 1.22021 6.56089 -3.27954
Ar 0.399267 -3.14483 -3.74437
Ar 0.275145 3.52791 -4.85718
Ar -5.28562 -0.834996 -4.65596
Ar -1.20752 -5.56905 5.96377
Ar -1.61594 1.47117 -7.24079
Ar 4.77259 -0.0212725 4.57469
Ar 1.37955 1.93017 5.05014
Ar -4.65799 -1.70898 -1.00672
Ar 1.12984 -1.57747 2.35805
Ar 1.21227 -2.39316 5.74434
Ar -2.23281 6.13758 -0.899387
Ar -1.83973 -0.227581 -3.0221
Ar 4.37816 -0.406577 -3.1892
38
Atoms. Timestep: 160000
Ar 6.59599 -2.29712 2.43063
Ar 1.08839 1.34609 -0.495667
Ar 4.68812 2.99905 -1.3174
Ar -4.56624 3.6145 0.755771
Ar -0.891384 3.97371 1.4004
Ar -2.99459 -3.48536 -2.04003
Ar -2.2518 0.670365 0.993192
Ar -3.5205 -2.71991 1.7617
Ar -5.64974 0.519797 2.84212
Ar 1.80716 -1.31893 -3.00642
Ar 3.59027 -1.64738 0.235253
Ar 2.79761 -5.30829 0.516813
Ar -1.29745 3.84192 -2.12241
Ar -0.358976 -3.76506 3.42041
Ar 3.08544 -3.74159 3.72172
Ar -4.88092 2.33374 -2.81262
Ar -0.972328 -2.87049 -5.50223
Ar 1.77255 5.6364 -0.49024
Ar -3.30557 3.04147 4.11169
Ar 0.118703 -2.40927 -0.0107657
Ar 4.50256 -4.0982 -2.43232
Ar 6.037 1.60768 2.15378
Ar 2.55528 3.23482 2.17718
Ar -2.13474 -0.358502 4.74247
Ar -2.71726 3.6553 -5.25863
Ar 0.794295 -5.01616 -2.86574
Ar 1.65429 2.68923 -3.93384
Ar -4.82511 -1.06118 -4.61728
Ar -0.925722 -6.3127 0.662251
Ar -0.718971 0.716661 -6.41078
Ar 4.11972 -0.430752 4.61095
Ar -0.043575 2.59549 6.10929
Ar -5.15689 -0.680623 -0.872188
Ar 0.894463 0.0168156 2.71055
Ar 1.16086 -1.19132 6.47746
Ar -4.30961 6.77278 -2.52197
Ar -1.68239 -0.0959778 -2.5927
Ar 5.94306 -0.456008 -2.53039
38
Atoms. Timestep: 170000
Ar 6.46716 -2.55542 -0.074722
Ar 0.559223 2.4446 -0.0530623
Ar 3.52872 2.7257 -2.37439
Ar -5.56777 3.36712 1.68099
Ar 0.794202 3.95611 3.3239
Ar -3.03119 -4.526 -1.00902
Ar -2.92196 0.610932 0.0499261
Ar -2.82714 -2.52755 2.24025
Ar -5.56771 -0.137881 2.42858
Ar 1.18798 -0.202004 -2.76046
Ar 3.36963 -0.63019 0.614288
Ar 3.44416 -4.10626 1.76249
Ar -2.55568 4.31043 -0.214798
Ar 0.324377 -3.11791 3.83685
Ar 3.2862 -4.56146 5.55653
Ar -5.09837 1.93162 -2.62862
Ar -0.126139 -1.37622 -6.06284
Ar 0.854747 5.94968 -0.600912
Ar -2.4504 2.41758 3.11382
Ar 0.142515 -2.12604 0.0729351
Ar 3.1553 -3.44545 -1.62929
Ar 6.66396 1.27945 0.630546
Ar 3.94071 4.11358 1.44697
Ar -2.79883 -0.639865 5.35275
Ar -2.18029 1.55706 -6.99621
Ar -0.326729 -4.11204 -3.7147
Ar -1.3228 2.72213 -3.1608
Ar -5.17767 -0.931844 -5.67481
Ar -0.302623 -5.64362 1.19543
Ar 1.8734 1.79749 -5.64511
Ar 3.42119 -1.20415 4.32203
Ar -0.12883 1.98072 6.43852
Ar -5.64837 -1.44416 -1.39711
Ar 0.294333 0.179078 2.70368
Ar 0.554216 -1.70139 7.10296
Ar 1.41016 5.48325 -3.90102
Ar -2.54406 -1.17943 -3.2022
Ar 5.30637 -0.656624 -2.77334
38
Atoms. Timestep: 180000
Ar 5.8919 -1.71959 1.01976
Ar 0.874077 3.06025 -0.993075
Ar 3.60055 2.91067 -3.16397
Ar -4.12496 3.69299 -0.876421
Ar 1.62502 3.15659 3.60235
Ar -2.98344 -5.35573 -0.261872
Ar -1.50454 1.2606 1.5148
Ar -3.48432 -1.84994 1.19673
Ar -4.85213 2.89711 2.59848
Ar 0.600441 -0.429265 -3.31646
Ar 2.29995 0.16328 0.981886
Ar 2.81519 -3.98464 1.5632
Ar -0.523534 6.27061 -2.13599
Ar -0.401254 -5.40509 2.65342
Ar 5.86996 -4.24519 4.18023
Ar -5.25585 1.79126 -3.8726
Ar 0.78334 -3.18995 -6.74242
Ar -0.72331 5.20673 1.31062
Ar -1.74347 3.05585 4.98665
Ar -0.211795 -2.20608 -0.334149
Ar 3.35817 -2.19798 -1.67593
Ar 4.97587 1.70031 3.4155
Ar 3.77535 4.37161 0.575167
Ar -2.96599 -0.429889 5.52568
Ar -2.3085 -0.574083 -5.51038
Ar -2.06795 -3.48481 -3.52958
Ar -1.8952 2.68117 -3.97687
Ar -5.4276 -2.07087 -3.29915
Ar 1.64005 -5.40686 -2.21942
Ar 0.661745 0.858184 -6.5188
Ar 3.38855 -1.35589 4.30251
Ar 0.420139 -0.206116 7.19356
Ar -6.19794 0.633523 -0.516769
Ar -0.229196 -1.55253 3.73242
Ar 0.264801 -3.99422 6.07128
Ar 1.14331 4.5163 -5.16538
Ar -2.70722 -0.013137 -1.74066
Ar 5.62178 1.4458 -0.574327
38
Atoms. Timestep: 190000
Ar 6.433 -2.50093 1.69485
Ar 0.895162 1.89316 -0.313474
Ar 0.399757 3.60882 -4.41237
Ar -3.99986 5.04279 1.65312
Ar 0.372897 5.41527 4.93079
Ar -2.79122 -2.0066 -0.538456
Ar -2.50469 1.56727 0.647388
Ar -3.11505 -4.8911 2.15532
Ar -5.77059 1.96994 2.54364
Ar 0.715413 -1.26694 -2.05464
Ar 3.82784 0.0355612 0.654167
Ar 3.5031 -3.29724 -0.605932
Ar 1.86351 5.10689 -1.26187
Ar 0.0822917 -4.33761 -0.0962008
Ar 3.24737 -5.13132 3.33315
Ar -5.4928 2.57912 -1.28038
Ar 3.43355 -2.21857 -4.06722
Ar -0.454459 4.63876 1.5523
Ar -2.22582 2.71548 3.79581
Ar 0.0912749 -0.934707 1.66666
Ar 6.13797 -1.23051 -1.97089
Ar 6.458 0.997573 3.37405
Ar 3.50311 4.25743 2.15995
Ar -3.18914 -1.34238 3.03581
Ar -1.84765 -3.35048 -4.15113
Ar -4.06435 -5.36943 -2.10278
Ar -2.12681 4.42174 -1.92569
Ar -4.92771 -1.22495 -3.35486
Ar 1.12215 -5.23726 -3.2347
Ar 0.495981 -0.494371 -5.86152
Ar 2.70514 -1.4405 3.9211
Ar -0.611362 -0.329612 5.94561
Ar -6.11945 -0.95725 0.561993
Ar 1.4719 1.97638 4.13525
Ar -0.152465 -3.59085 3.92344
Ar 1.28599 2.68109 -8.04073
Ar -1.94662 0.92647 -3.17451
Ar 3.29668 1.31989 -3.23706
38
Atoms. Timestep: 200000
Ar 5.35427 -1.83106 3.32156
Ar 0.759387 1.94426 -0.720587
Ar 0.908139 1.9298 -4.31348
Ar -3.85141 4.5728 2.71425
Ar 2.19323 4.38472 4.92015
Ar -3.93991 -1.32163 0.130986
Ar -2.27571 1.76184 1.25875
Ar -2.26829 -4.45243 1.23075
Ar -5.66751 0.895276 2.56172
Ar 1.77751 -1.1838 -2.60073
Ar 3.32226 -0.397138 0.638291
Ar 4.59251 -4.09639 0.653717
Ar 1.69307 5.16106 -2.54048
Ar 1.09779 -4.76235 -0.644685
Ar -0.227694 -7.59482 1.3435
Ar -5.17985 2.37014 -0.964781
Ar 5.50829 -1.82034 -2.20067
Ar 0.105639 4.80735 1.73807
Ar -1.26131 3.52554 4.95927
Ar -0.310042 -1.32254 0.196686
Ar 6.85691 0.494116 0.019882
Ar 3.603 4.17839 1.12018
Ar 2.35099 7.70951 2.37909
Ar -2.05436 -1.20413 3.52054
Ar -2.91708 -4.37804 -3.17766
Ar -6.78929 -4.21107 -1.66296
Ar -1.95033 4.24955 -1.58638
Ar -5.6826 -0.473185 -3.59025
Ar 1.13612 -3.97466 -5.50824
Ar -1.25251 -0.965401 -6.17659
Ar 5.16718 2.11926 3.58063
Ar 1.68392 -2.87609 2.76042
Ar -7.43684 -0.343564 -0.414275
Ar 0.967571 0.922942 3.25034
Ar -1.02874 -5.34489 4.80061
Ar 3.21179 -1.15841 -6.14745
Ar -2.16474 0.305547 -2.60376
Ar 3.97067 2.38083 -2.2464
38
Atoms. Timestep: 210000
Ar 6.51807 -2.72569 3.16083
Ar 1.54552 1.60813 0.252271
Ar 1.46028 1.22144 -4.46378
Ar -3.70875 5.03831 1.13387
Ar 2.27722 5.01751 5.02853
Ar -3.67338 -1.47237 0.751801
Ar -1.95187 1.77061 1.296
Ar -2.74655 -7.34488 -2.65478
Ar -4.94854 1.98532 3.21163
Ar 1.59653 -1.66346 -1.66586
Ar 3.2226 -0.977532 2.40454
Ar 5.31471 -2.15664 -0.745214
Ar 1.75606 4.06526 -2.32272
Ar 2.21933 -4.61949 0.465708
Ar -4.21152 -4.75757 -4.56541
Ar -4.53404 1.97405 -1.55731
Ar 5.55878 -1.1263 -4.20093
Ar -0.00371162 4.88713 1.21067
Ar -2.04579 4.36959 4.15325
Ar -0.152939 -1.36879 1.41598
Ar 7.15024 0.424258 1.11735
Ar 3.58008 5.70047 0.819942
Ar -0.0886214 8.00519 3.3938
Ar -2.59186 -0.453431 4.32356
Ar -1.62409 -3.38442 -2.03607
Ar -4.68795 -4.52542 -0.424327
Ar -1.68105 4.35217 -2.24738
Ar -4.86232 -1.62015 -2.80862
Ar 0.941349 -6.83465 -3.35658
Ar -2.23205 -1.64319 -5.49591
Ar 4.31131 2.49103 2.36187
Ar 0.683826 -2.51665 4.94102
Ar -7.05119 0.326573 0.406465
Ar 0.809519 1.58852 4.12494
Ar -1.26969 -5.64059 1.31916
Ar 1.42174 -2.95462 -5.24524
Ar -1.34822 0.371389 -2.29213
Ar 5.04901 2.58992 -1.21095
38
Atoms. Timestep: 220000
Ar 7.16338 -2.83688 0.194495
Ar 2.22288 1.46823 0.166301
Ar 2.05884 1.7521 -4.44435
Ar -3.0724 5.64165 1.4845
Ar 1.70678 3.48175 5.36438
Ar -3.88988 -0.867716 -0.286126
Ar -1.50034 2.19849 0.578122
Ar -2.6856 -7.19429 -0.0635124
Ar -4.87324 2.20281 1.6922
Ar 1.22864 -1.55364 -2.23783
Ar 5.68734 0.533038 1.56362
Ar 4.24994 -4.34117 -1.58168
Ar 3.5511 7.77142 -0.105016
Ar 3.03913 -2.10499 1.03635
Ar -3.19331 -5.04925 -4.95838
Ar -4.41858 2.93449 -2.03461
Ar 2.91996 -3.98555 -5.01769
Ar 0.553186 4.98084 1.88994
Ar -0.880838 1.55457 3.93901
Ar -0.592474 -1.17151 1.07521
Ar 4.42727 4.14484 -1.45355
Ar 3.01411 7.14395 4.51702
Ar -1.89819 4.87658 5.49746
Ar -3.50967 -0.685903 3.39153
Ar -1.71237 -3.40335 -2.01936
Ar -5.3219 -4.38319 -1.55275
Ar 0.990622 4.35031 -1.60127
Ar -5.39537 -1.34341 -3.87228
Ar 0.362302 -4.72666 0.970149
Ar -0.557271 -2.51856 -5.44102
Ar 4.22476 3.82628 2.51728
Ar 0.30546 -2.22626 4.3192
Ar -7.88349 -1.87382 -1.30107
Ar 2.88749 0.489031 3.54227
Ar -3.51935 -4.13816 1.92804
Ar 1.03601 -5.81756 -2.40269
Ar -1.29465 1.04091 -2.83165
Ar 4.57173 -0.168394 -2.46226
38
Atoms. Timestep: 230000
Ar 5.30657 -3.70564 0.621989
Ar 0.977041 1.88776 0.0566609
Ar 3.63616 0.47197 -5.40858
Ar -5.30285 3.28912 -0.482292
Ar 0.0394546 4.28643 7.23027
Ar -3.58546 -1.1396 3.57702
Ar -2.55271 1.70797 1.51796
Ar -0.748186 -4.89763 -0.268593
Ar -5.91866 1.63661 3.02285
Ar 0.980844 -1.51849 -2.41807
Ar 6.53841 -0.153121 1.03105
Ar 2.76076 -4.84314 -1.70453
Ar 1.84903 5.19254 -1.16801
Ar 2.96169 -1.02189 0.575978
Ar -2.61223 -3.49169 -6.52992
Ar -1.99963 0.741871 -2.16743
Ar 2.66125 -3.46203 -5.35015
Ar -0.0583189 4.85087 1.87239
Ar 0.470889 1.53071 3.47058
Ar -0.923981 -1.45688 0.749842
Ar 3.98969 1.92941 -1.52262
Ar 3.12534 5.40357 4.81386
Ar -3.7778 5.29262 2.99629
Ar -2.67618 1.99191 5.00917
Ar -3.34839 -2.58979 -3.11941
Ar -4.13931 -4.00524 0.607054
Ar -2.08125 4.08446 -1.40371
Ar -3.36073 1.4288 -5.33328
Ar 1.46664 -3.86682 2.22924
Ar -0.485998 -0.771977 -5.55933
Ar 4.12162 3.27573 1.88727
Ar 0.0268718 -1.93341 4.77309
Ar -5.18418 -0.879887 -0.898574
Ar 4.13732 -0.311293 3.90737
Ar -1.88568 -4.63589 3.59324
Ar -0.448445 -4.88892 -3.93421
Ar 0.704656 2.75535 -3.81764
Ar 5.33778 -2.18339 -2.45681
38
Atoms. Timestep: 240000
Ar 6.31008 -2.15547 0.921408
Ar 1.46956 1.05607 1.41926
Ar 4.1526 0.169988 -5.9183
Ar -2.94368 2.76616 -2.10383
Ar -0.680507 4.03493 6.82656
Ar -4.42187 -1.10121 3.15164
Ar -2.06364 1.81499 1.51028
Ar -0.868552 -3.69739 -1.81393
Ar -6.58517 7.30076 6.42425
Ar 1.95803 -1.87074 -3.50651
Ar 7.48336 1.38013 -1.5445
Ar 2.6879 -5.47352 -1.94112
Ar -2.5558 7.5044 3.68186
Ar 2.5575 -2.08452 0.287608
Ar -3.05274 -4.69316 -4.8695
Ar -0.414188 0.133024 -1.36918
Ar 4.32565 -3.99512 -5.82019
Ar 0.0993497 4.6184 2.9525
Ar -0.834737 1.04637 4.57923
Ar -0.932859 -1.73493 2.12967
Ar 3.45486 1.49604 -1.6658
Ar 2.52284 2.6367 4.60592
Ar -4.57281 5.07578 1.2194
Ar -3.91466 3.72999 4.67215
Ar -1.67936 -1.30493 -4.53569
Ar -3.66827 -1.17945 -0.462756
Ar 0.596603 3.7821 -0.781956
Ar -5.87793 -3.48377 -1.87061
Ar 0.48841 -5.264 1.7872
Ar 0.758621 -2.22578 -7.17619
Ar 5.01146 2.53493 1.58894
Ar 0.467812 -3.10457 5.23314
Ar -6.25243 2.11428 -0.266733
Ar 3.85601 -0.708319 3.78697
Ar -3.5075 -4.40117 1.50638
Ar 0.449061 -5.43051 -4.97691
Ar 0.924665 2.15167 -5.03617
Ar 5.25434 -1.43712 -2.62449
38
Atoms. Timestep: 250000
Ar 4.76625 -0.329207 2.54136
Ar 0.745153 3.84853 1.80588
Ar 5.1279 0.0442981 -5.28978
Ar -1.58311 2.88561 -5.31678
Ar -2.16353 2.63386 4.92768
Ar -5.09905 -1.03517 4.10577
Ar -2.5985 2.25073 0.935944
Ar -2.09071 -1.25803 -0.219139
Ar -5.52379 1.57009 6.90496
Ar 1.45552 -1.38189 -2.34688
Ar 7.01262 -2.56962 -6.90513
Ar 1.3335 -4.6973 -1.27959
Ar -3.00553 5.21865 2.65615
Ar 1.61316 0.267913 0.954489
Ar -4.21061 -3.16434 -2.65235
Ar -0.250782 1.85262 -1.77041
Ar 4.4924 -3.72768 -4.3922
Ar 0.596003 5.44925 5.20027
Ar -0.647679 0.39685 7.1205
Ar -1.10362 -0.143301 3.21501
Ar 4.29217 0.954577 -1.90694
Ar 2.15355 1.47395 4.29824
Ar -2.70377 4.64259 -1.86162
Ar -6.19869 2.29579 2.75297
Ar -1.72727 -0.987109 -4.57795
Ar -3.81792 1.15899 -2.63895
Ar 3.13915 5.25817 -2.01064
Ar -4.04827 -3.55977 1.75071
Ar -0.0945761 -3.47006 2.16255
Ar 1.76336 -1.41497 -6.08776
Ar 4.31514 3.20262 1.4717
Ar 2.23787 -2.17308 4.96989
Ar -5.9018 -0.171222 0.147766
Ar 3.30166 -4.42551 2.08986
Ar -1.96663 -5.76064 -0.751125
Ar -0.47916 -4.71212 -4.67467
Ar 2.05758 1.87645 -4.61758
Ar 4.81399 -2.29951 -0.712219
38
Atoms. Timestep: 260000
Ar 4.93548 -3.66683 3.00632
Ar 0.103044 2.19799 0.448671
Ar 5.15087 -0.6205 -2.84607
Ar -3.92621 4.72372 -4.16285
Ar -2.33383 3.07975 3.64554
Ar -4.845 0.643312 4.05599
Ar -3.30576 0.273133 0.590821
Ar -0.365399 -1.55373 -0.705794
Ar -2.26672 0.700032 6.83423
Ar 1.23391 -0.0511398 -3.20866
Ar 6.90682 -3.11847 -6.12009
Ar 3.01131 -3.53771 -1.4384
Ar -0.147839 5.93259 0.597685
Ar 3.16684 -0.0529653 0.490335
Ar -3.15521 -2.22172 -3.06436
Ar -2.12851 1.75105 -2.28169
Ar 3.29732 -3.09972 -5.26391
Ar 1.3815 3.26028 3.66117
Ar 1.62614 1.42199 7.5458
Ar -1.07278 -0.340908 3.54169
Ar 3.22233 3.04846 -1.95083
Ar 2.74163 -0.308806 4.23797
Ar -3.42006 4.07262 0.293958
Ar -6.55755 2.39222 0.888007
Ar -1.16501 -1.06411 -5.70449
Ar -5.64556 0.366132 -2.33246
Ar -0.0217623 5.52845 -3.2471
Ar -2.76179 -3.09384 1.41417
Ar -3.42817 -3.14531 5.74907
Ar 3.63802 0.763079 -6.38397
Ar 6.00037 2.60181 1.74845
Ar 0.645805 -2.51126 6.13579
Ar -6.54816 -1.67568 1.33883
Ar 0.864247 -3.40871 2.4556
Ar -2.5931 -6.30885 -0.658019