38
Atoms. Timestep: 0
Ar 1.668 1.873 0
Ar 5.651 1.903 0.003
Ar 1.878 5.656 -0.01
Ar -1.867 1.863 -0.007
Ar -5.65 1.873 -0.014
Ar -1.898 5.645 -0.014
Ar -1.857 -1.873 0
Ar -5.64 -1.903 -0.003
Ar -1.867 -5.656 0.01
Ar 1.878 -1.863 0.007
Ar 5.661 -1.873 0.014
Ar 1.909 -5.645 0.014
Ar 0.002 0.007 2.642
Ar 3.751 0.017 2.659
Ar -3.75 -0.003 2.646
Ar -0.008 3.756 2.646
Ar 0.012 -3.745 2.659
Ar 3.761 3.786 2.656
Ar -3.778 3.766 2.646
Ar -3.757 -3.773 2.663
Ar 3.781 -3.752 2.673
Ar 0.009 -0.007 -2.642
Ar 3.761 0.003 -2.646
Ar -3.74 -0.017 -2.659
Ar -0.002 3.746 -2.659
Ar 0.019 -3.756 -2.646
Ar 3.768 3.773 -2.663
Ar -3.771 3.752 -2.673
Ar -3.75 -3.786 -2.656
Ar 3.788 -3.766 -2.646
Ar 1.871 1.897 5.329
Ar -1.888 1.886 5.325
Ar -1.878 -1.873 5.332
Ar 1.881 -1.863 5.339
Ar 1.888 1.873 -5.332
Ar -1.871 1.863 -5.339
Ar -1.861 -1.897 -5.329
Ar 1.898 -1.886 -5.325
38
Atoms. Timestep: 10000
Ar 1.88508 1.90807 -0.000941689
Ar 5.7154 1.83257 0.0990342
Ar 1.91642 5.70826 -0.0451076
Ar -1.90511 1.79973 -0.0894387
Ar -5.70501 1.85831 -0.0075249
Ar -1.90057 5.63591 0.036978
Ar -1.81302 -1.90602 -0.0333436
Ar -5.73081 -2.00177 -0.0402138
Ar -1.93254 -5.75283 0.0312048
Ar 1.86615 -1.81634 0.0194606
Ar 5.71574 -1.91319 0.00369611
Ar 1.91487 -5.57151 -0.059283
Ar 0.0507201 -0.0123222 2.59216
Ar 3.78165 0.0468665 2.74983
Ar -3.82102 -0.00498038 2.65154
Ar 0.019596 3.75779 2.50277
Ar 0.0594654 -3.81114 2.64284
Ar 3.74783 3.85097 2.57467
Ar -3.81015 3.81654 2.54425
Ar -3.70721 -3.70641 2.67756
Ar 3.86084 -3.69126 2.64452
Ar -0.0100465 0.037626 -2.6616
Ar 3.79366 -0.0292542 -2.5181
Ar -3.79659 -0.0646881 -2.62421
Ar 0.0475978 3.77782 -2.70145
Ar -0.0775779 -3.76569 -2.62109
Ar 3.81693 3.73179 -2.68011
Ar -3.86091 3.70492 -2.54782
Ar -3.79766 -3.80879 -2.72523
Ar 3.84575 -3.74611 -2.65342
Ar 1.90031 1.96384 5.37892
Ar -1.88567 1.84839 5.29519
Ar -1.85281 -1.90232 5.32648
Ar 1.78963 -1.86635 5.28737
Ar 1.99297 1.90747 -5.26832
Ar -1.97933 1.91901 -5.29408
Ar -2.00371 -1.89244 -5.2595
Ar 1.87114 -1.84147 -5.22769
38
Atoms. Timestep: 20000
Ar 1.89656 1.95968 0.0319569
Ar 5.71305 2.06283 -0.0524455
Ar 1.81155 5.71164 0.00526784
Ar -1.83073 1.90903 -0.0590103
Ar -5.53515 1.98663 -0.0386952
Ar -1.98416 5.59443 -0.00719396
Ar -1.9062 -1.88971 0.0347655
Ar -5.75156 -1.78573 0.00270047
Ar -1.84385 -5.6651 -0.00473863
Ar 1.83376 -1.92585 0.000479765
Ar 5.68941 -1.82704 0.0276254
Ar 1.88608 -5.63836 0.0935928
Ar -0.0454212 -0.0154054 2.57724
Ar 3.7845 0.02473 2.58196
Ar -3.77715 -0.0805429 2.65239
Ar -0.0924441 3.79769 2.63871
Ar -0.00229254 -3.7404 2.68947
Ar 3.70881 3.86051 2.63867
Ar -3.70303 3.7692 2.77475
Ar -3.84526 -3.84103 2.54402
Ar 3.82506 -3.73226 2.6487
Ar -0.0153911 -0.0679018 -2.59036
Ar 3.81255 0.0302596 -2.63831
Ar -3.85385 0.00382432 -2.6487
Ar 0.027525 3.79607 -2.71581
Ar -0.00705484 -3.84852 -2.71151
Ar 3.79812 3.86342 -2.60776
Ar -3.72636 3.79337 -2.80237
Ar -3.83104 -3.75198 -2.59778
Ar 3.74297 -3.80467 -2.56264
Ar 1.87914 1.82154 5.20374
Ar -1.80889 1.76941 5.40865
Ar -1.86134 -1.98363 5.3814
Ar 1.92403 -1.8665 5.28745
Ar 1.88953 1.82668 -5.35538
Ar -1.85612 1.75982 -5.23103
Ar -1.897 -1.97583 -5.29923
Ar 1.95366 -1.89931 -5.30056
38
Atoms. Timestep: 30000
Ar 1.80044 1.90335 -0.0534451
Ar 5.56378 1.77556 -0.0610865
Ar 1.86254 5.72776 0.00531337
Ar -1.84259 1.8358 0.00600952
Ar -5.68005 1.77015 -0.0328981
Ar -1.97842 5.61188 0.0312819
Ar -1.78752 -1.87992 -0.0659642
Ar -5.57896 -1.9497 -0.0168101
Ar -1.87089 -5.62343 0.0406177
Ar 1.9545 -1.83785 -0.0244918
Ar 5.65674 -1.93656 -0.00250984
Ar 1.91392 -5.66143 0.00197019
Ar 0.0309224 0.0253809 2.67885
Ar 3.78662 0.0495741 2.6994
Ar -3.67599 -0.0435523 2.68499
Ar -0.0515832 3.77243 2.64014
Ar 0.0268452 -3.72667 2.71138
Ar 3.64587 3.72471 2.60965
Ar -3.85296 3.74842 2.75478
Ar -3.72459 -3.79267 2.71846
Ar 3.71685 -3.83592 2.76897
Ar 0.0633231 0.0122862 -2.69303
Ar 3.81019 -0.0674494 -2.73312
Ar -3.78416 0.0572715 -2.68834
Ar -0.0141917 3.84385 -2.64059
Ar -0.0175452 -3.74902 -2.69394
Ar 3.80941 3.79095 -2.70812
Ar -3.88168 3.80417 -2.63371
Ar -3.80774 -3.71163 -2.73105
Ar 3.85615 -3.81156 -2.68335
Ar 1.83211 1.97273 5.35418
Ar -1.87881 1.9405 5.33472
Ar -1.89768 -1.83177 5.40003
Ar 1.89028 -1.80977 5.41455
Ar 1.8512 1.78901 -5.31755
Ar -1.88902 1.97204 -5.29152
Ar -1.79052 -1.80904 -5.37578
Ar 1.93521 -2.04885 -5.408
38
Atoms. Timestep: 40000
Ar 1.89279 1.89021 -0.0713824
Ar 5.57824 1.95112 -0.0202656
Ar 1.84345 5.64801 -0.0130773
Ar -1.86624 1.87456 0.00434815
Ar -5.75638 1.95274 0.064665
Ar -1.95313 5.72098 -0.0516142
Ar -1.83862 -1.87783 -0.081062
Ar -5.78484 -1.85404 0.00086735
Ar -1.85262 -5.69525 0.0822362
Ar 1.86976 -1.89844 -0.0145903
Ar 5.6237 -1.91049 0.0599975
Ar 1.96061 -5.70394 0.0248773
Ar 0.0262629 0.0461125 2.70023
Ar 3.7194 -0.00692042 2.67849
Ar -3.7107 0.0231037 2.59475
Ar 0.00828053 3.79455 2.6236
Ar 0.0504567 -3.71025 2.56981
Ar 3.69281 3.82627 2.67683
Ar -3.77891 3.75086 2.61902
Ar -3.65958 -3.71146 2.61442
Ar 3.84374 -3.94459 2.62581
Ar 0.0268667 0.00131162 -2.61593
Ar 3.86713 0.0298717 -2.72843
Ar -3.8006 0.0410498 -2.59919
Ar 0.017397 3.67775 -2.66248
Ar 0.0197402 -3.80034 -2.60698
Ar 3.78976 3.82742 -2.61892
Ar -3.87826 3.70422 -2.81757
Ar -3.80838 -3.84335 -2.56418
Ar 3.87771 -3.75469 -2.63667
Ar 1.82984 1.78431 5.35863
Ar -1.96353 1.91743 5.44179
Ar -1.78992 -1.88007 5.35149
Ar 1.91638 -1.93052 5.32546
Ar 2.00474 1.95013 -5.33406
Ar -1.85702 1.87965 -5.44698
Ar -1.93758 -1.94115 -5.23547
Ar 1.77924 -1.8273 -5.29847
38
Atoms. Timestep: 50000
Ar 1.9614 1.92563 -0.00880161
Ar 5.69098 1.90051 -0.0337063
Ar 1.89111 5.71948 0.0631374
Ar -1.76636 1.88868 -0.0549921
Ar -5.63348 1.9318 0.0238859
Ar -2.03512 5.67634 -0.0212262
Ar -1.83111 -1.95514 0.0489235
Ar -5.76176 -1.95991 0.00412649
Ar -1.94504 -5.61185 0.00551504
Ar 1.86829 -1.98312 -0.00497991
Ar 5.56436 -1.85683 0.00080537
Ar 1.86375 -5.70574 0.0687946
Ar 0.00547214 0.0227022 2.67276
Ar 3.77542 0.0283648 2.62991
Ar -3.66215 -0.018016 2.63059
Ar -0.0990167 3.85936 2.71058
Ar -0.0422448 -3.71797 2.76103
Ar 3.76467 3.81974 2.66098
Ar -3.74248 3.75132 2.70105
Ar -3.7724 -3.70967 2.60138
Ar 3.73662 -3.77609 2.59731
Ar -0.000447687 0.0432869 -2.61699
Ar 3.81288 0.0207627 -2.70234
Ar -3.76205 -0.110484 -2.55207
Ar -0.0753793 3.83554 -2.67943
Ar -0.0789656 -3.77937 -2.63044
Ar 3.83173 3.90331 -2.7534
Ar -3.81015 3.71432 -2.69526
Ar -3.74932 -3.81 -2.73983
Ar 3.71244 -3.80422 -2.66945
Ar 1.94481 2.02897 5.40167
Ar -1.83454 1.73638 5.30719
Ar -1.90529 -2.01075 5.3116
Ar 1.92528 -1.80244 5.29893
Ar 1.98974 1.86327 -5.4264
Ar -1.94698 1.75367 -5.27919
Ar -1.82533 -1.96896 -5.36622
Ar 1.94267 -1.84185 -5.26541
38
Atoms. Timestep: 60000
Ar 1.92812 1.9098 0.00188406
Ar 5.71848 1.99159 -0.200175
Ar 2.0965 5.71875 0.0216979
Ar -1.91327 1.81553 0.064776
Ar -5.75042 1.59684 0.011318
Ar -1.85933 5.62986 0.135415
Ar -2.00571 -1.81601 0.0577228
Ar -5.80631 -2.19533 -0.049107
Ar -1.91086 -5.73283 0.00510035
Ar 1.93344 -1.81164 0.0475352
Ar 5.73551 -1.93259 6.33537e-05
Ar 1.89852 -5.54678 -0.0140756
Ar 0.0610463 0.0202322 2.61837
Ar 3.87797 0.11732 2.60561
Ar -3.79355 0.0141926 2.70689
Ar 0.0151552 3.81855 2.67935
Ar -0.0946092 -3.69205 2.56234
Ar 3.97301 3.70801 2.66654
Ar -3.80446 3.6734 2.61401
Ar -3.90209 -3.78403 2.75134
Ar 3.74924 -3.64649 2.68127
Ar 0.0403725 0.0609972 -2.67314
Ar 3.81903 -0.0489726 -2.61109
Ar -3.78171 -0.0465722 -2.81006
Ar 0.0212266 3.79394 -2.53732
Ar -0.00995715 -3.70939 -2.59748
Ar 3.76018 3.70311 -2.71315
Ar -3.80736 3.63539 -2.53971
Ar -3.75165 -3.86142 -2.73303
Ar 3.68743 -3.72071 -2.75586
Ar 1.79857 1.93072 5.30752
Ar -1.96839 1.95819 5.34985
Ar -1.89047 -1.75865 5.34455
Ar 1.88173 -1.82383 5.36021
Ar 1.95002 1.87206 -5.35054
Ar -1.73948 1.90733 -5.35107
Ar -1.94333 -1.86715 -5.35913
Ar 1.78942 -1.88035 -5.29842
38
Atoms. Timestep: 70000
Ar 1.78502 1.92678 0.0725592
Ar 5.58658 2.01173 0.130616
Ar 1.81427 5.64855 -0.242714
Ar -1.8875 2.01277 -0.0311782
Ar -5.57185 2.00532 0.147124
Ar -1.92484 5.66453 -0.098193
Ar -1.92033 -1.90332 0.0547378
Ar -5.6651 -1.83744 0.137665
Ar -1.99187 -5.75279 -0.0249877
Ar 1.87421 -1.8297 0.0475174
Ar 5.7096 -1.79294 0.00703885
Ar 1.73609 -5.67848 -0.145385
Ar -0.0552762 0.123233 2.67248
Ar 3.70417 -0.0366443 2.78987
Ar -3.80675 -0.0368578 2.74709
Ar 0.0785271 3.91766 2.62176
Ar 0.136403 -3.74854 2.58562
Ar 3.76007 3.93298 2.72517
Ar -3.69103 3.86703 2.79285
Ar -3.77065 -3.91846 2.67534
Ar 3.91724 -3.94665 2.49281
Ar -0.10547 -0.020782 -2.64482
Ar 3.75073 0.12862 -2.68677
Ar -3.73897 -0.179467 -2.71417
Ar 0.0323266 3.63798 -2.78212
Ar -0.0976832 -3.75628 -2.66746
Ar 4.05303 3.84157 -2.93179
Ar -3.797 3.56442 -2.7916
Ar -3.89709 -3.9037 -2.49056
Ar 3.67134 -3.74542 -2.55374
Ar 1.82202 1.86452 5.44152
Ar -1.85528 1.97919 5.47138
Ar -1.86546 -2.13944 5.36215
Ar 1.87119 -2.03739 5.43625
Ar 1.8739 1.89323 -5.55888
Ar -1.82986 1.89204 -5.35451
Ar -1.74545 -1.88239 -5.4727
Ar 2.04276 -1.76446 -5.21997
38
Atoms. Timestep: 80000
Ar 1.82376 1.81661 -0.0114023
Ar 5.82015 1.81601 -0.25056
Ar 2.03208 5.44939 -0.00684698
Ar -1.90821 1.93149 0.0825362
Ar -5.90418 1.75856 -0.0885312
Ar -1.87734 5.78891 0.145348
Ar -1.92778 -1.86912 0.0722023
Ar -5.65191 -2.05371 0.0705357
Ar -1.8201 -5.49587 0.104872
Ar 1.89931 -1.89363 0.11238
Ar 5.85884 -1.94761 -0.133593
Ar 1.97886 -5.49285 -0.0988466
Ar -0.0351267 0.0916557 2.64175
Ar 3.86897 -0.128258 2.73061
Ar -3.99737 0.0211891 2.65174
Ar -0.0464983 3.75972 2.65069
Ar 0.171271 -3.63439 2.80979
Ar 3.9514 3.58251 2.51567
Ar -3.99624 3.80759 2.57395
Ar -3.88391 -3.95441 2.82145
Ar 3.97903 -3.77408 2.6205
Ar -0.105924 -0.0666114 -2.62917
Ar 3.64366 -0.159634 -2.54786
Ar -3.84697 0.0323923 -2.56396
Ar 0.0394833 3.79427 -2.57506
Ar -0.0473697 -3.75984 -2.85749
Ar 3.84227 3.78133 -2.64359
Ar -3.76982 3.7307 -2.46727
Ar -3.73614 -3.72739 -2.73854
Ar 3.81745 -3.78498 -2.68424
Ar 1.78401 2.07077 5.12198
Ar -2.04306 1.95519 5.18062
Ar -1.9816 -1.76388 5.25599
Ar 1.90187 -1.74467 5.41963
Ar 1.8774 1.86689 -5.17156
Ar -1.78514 1.84409 -5.16584
Ar -1.89817 -1.83383 -5.48912
Ar 1.97506 -1.8135 -5.45876
38
Atoms. Timestep: 90000
Ar 1.90806 1.85937 -0.0149018
Ar 5.60244 1.87978 -0.13424
Ar 1.83321 5.72122 0.080119
Ar -1.93392 1.75862 -0.0335632
Ar -5.72687 1.93011 -0.125387
Ar -2.05387 5.71772 0.066829
Ar -1.88009 -1.92947 0.064996
Ar -5.76163 -1.95122 -0.111546
Ar -1.97246 -5.77729 0.148845
Ar 1.98739 -1.90971 0.0896952
Ar 5.72042 -1.88572 -0.0333968
Ar 1.78789 -5.7369 0.137047
Ar 0.0545334 -0.0613181 2.63771
Ar 3.90146 -0.0254038 2.62842
Ar -3.77614 0.0466891 2.65866
Ar 0.0916506 3.62181 2.6542
Ar -0.0376474 -3.75432 2.57943
Ar 3.93213 3.92047 2.54868
Ar -3.6117 3.78623 2.7288
Ar -3.91022 -3.67962 2.67938
Ar 3.75134 -3.75538 2.81045
Ar -0.0306285 -0.0759314 -2.57826
Ar 3.64733 0.00484906 -2.70005
Ar -3.72759 0.0277444 -2.75995
Ar -0.0511158 3.84094 -2.55585
Ar 0.044957 -3.85068 -2.59479
Ar 3.65279 3.95418 -2.75828
Ar -3.79136 3.8094 -2.73284
Ar -3.67409 -3.77026 -2.67704
Ar 3.79046 -3.77853 -2.59281
Ar 2.14844 1.85258 5.18464
Ar -1.61591 1.83064 5.45196
Ar -2.05881 -1.87657 5.37294
Ar 1.72536 -1.93163 5.39258
Ar 1.83096 2.09198 -5.39254
Ar -1.7789 1.81574 -5.2899
Ar -1.81309 -1.87629 -5.41391
Ar 1.79721 -1.84285 -5.41612
38
Atoms. Timestep: 100000
Ar 1.82038 1.77681 0.00503668
Ar 5.63115 1.89876 -0.0184043
Ar 1.92525 5.52762 0.067524
Ar -1.88682 1.90987 -0.11195
Ar -5.64332 1.92056 -0.0549494
Ar -1.82091 5.58944 -0.00266631
Ar -1.84405 -1.83533 -0.0232839
Ar -5.62929 -1.81137 0.0735043
Ar -1.80882 -5.57803 0.128612
Ar 1.80832 -1.89726 -0.0256531
Ar 5.65911 -1.8934 -0.0265222
Ar 1.99953 -5.70338 -0.0571588
Ar 0.0208039 0.0131706 2.6504
Ar 3.73282 0.00213709 2.64445
Ar -3.70179 0.00730348 2.63556
Ar -0.00768964 3.74419 2.73234
Ar 0.0167672 -3.72324 2.71949
Ar 3.80489 3.69626 2.73426
Ar -3.75957 3.79027 2.67044
Ar -3.74894 -3.84753 2.72533
Ar 3.77264 -3.81409 2.61808
Ar 0.00642529 -0.0500578 -2.70951
Ar 3.73012 0.0340263 -2.69648
Ar -3.77169 -0.0614693 -2.64597
Ar -0.0265011 3.74522 -2.66903
Ar -0.0128558 -3.83825 -2.65153
Ar 3.89124 3.9119 -2.63221
Ar -3.76422 3.81766 -2.69137
Ar -3.81886 -3.75692 -2.61283
Ar 3.67406 -3.70121 -2.78966
Ar 1.83928 1.89376 5.32521
Ar -1.95522 1.93192 5.31636
Ar -1.96986 -1.77811 5.34696
Ar 1.934 -1.82044 5.31243
Ar 1.85192 1.88338 -5.24507
Ar -1.92762 1.84589 -5.26088
Ar -1.90672 -1.92519 -5.22895
Ar 1.88804 -1.9039 -5.55191
38
Atoms. Timestep: 110000
Ar 1.8876 1.89047 0.0226369
Ar 5.62986 1.93461 0.0268874
Ar 1.9219 5.69894 0.0655929
Ar -1.85162 1.89788 -0.0156346
Ar -5.70647 1.86502 -0.0106591
Ar -1.81279 5.66125 0.0155907
Ar -1.84352 -1.89748 0.0265226
Ar -5.65405 -1.89261 0.0104045
Ar -1.8413 -5.68575 0.0301317
Ar 1.87525 -1.87806 -0.024333
Ar 5.6468 -1.9332 -0.00617831
Ar 1.82868 -5.66637 0.0285596
Ar -0.044551 0.0113287 2.65368
Ar 3.77018 -0.0289453 2.56589
Ar -3.74251 0.0223642 2.63289
Ar 0.0344034 3.8041 2.64885
Ar 0.000412193 -3.7248 2.70741
Ar 3.7132 3.7035 2.60589
Ar -3.75138 3.72575 2.61774
Ar -3.77605 -3.7314 2.7271
Ar 3.74661 -3.76509 2.70946
Ar 0.0227138 -0.00657435 -2.68978
Ar 3.7616 -0.0067551 -2.64323
Ar -3.71913 -0.0125995 -2.65684
Ar 0.00959381 3.78275 -2.70813
Ar -0.0194459 -3.81267 -2.72154
Ar 3.68383 3.70835 -2.65673
Ar -3.82436 3.73587 -2.64268
Ar -3.75217 -3.75756 -2.62606
Ar 3.72915 -3.79676 -2.71493
Ar 1.98218 1.87869 5.37665
Ar -1.84117 1.83384 5.28567
Ar -1.87871 -1.88714 5.34653
Ar 1.91093 -1.81363 5.37455
Ar 1.85035 1.94221 -5.42258
Ar -1.91757 1.93792 -5.30575
Ar -1.88495 -1.84593 -5.29895
Ar 1.8585 -1.89054 -5.33465
38
Atoms. Timestep: 120000
Ar 1.8568 1.85761 -0.0821907
Ar 5.60507 1.91793 0.00899826
Ar 1.88613 5.66364 -0.056547
Ar -1.82885 1.89425 -0.0244232
Ar -5.65348 1.79748 -0.0856528
Ar -1.97493 5.70542 0.0751329
Ar -1.91657 -1.83934 0.00962334
Ar -5.69246 -1.84437 0.0789462
Ar -2.00359 -5.67198 0.075536
Ar 1.9665 -1.81129 0.00464648
Ar 5.77486 -1.92485 -0.0551604
Ar 1.77489 -5.70543 -0.0400097
Ar 0.0213183 -0.056621 2.62168
Ar 3.85321 0.0828324 2.67616
Ar -3.77944 0.0072996 2.67378
Ar 0.0451151 3.69412 2.65056
Ar -0.0236735 -3.8063 2.63356
Ar 3.70545 3.80231 2.7001
Ar -3.7179 3.69905 2.62511
Ar -3.82338 -3.78165 2.66906
Ar 3.81439 -3.85234 2.58377
Ar -0.0117485 0.0294006 -2.63445
Ar 3.75133 -0.0533045 -2.68969
Ar -3.75931 -0.0515123 -2.67398
Ar -0.0220686 3.92562 -2.69194
Ar -0.0510883 -3.73721 -2.55316
Ar 3.73703 3.77224 -2.70232
Ar -3.82468 3.79393 -2.59119
Ar -3.75867 -3.76787 -2.642
Ar 3.77853 -3.78745 -2.54392
Ar 1.93918 1.86017 5.27776
Ar -1.91777 1.93515 5.41862
Ar -1.88291 -1.80899 5.34067
Ar 2.02501 -1.93477 5.37475
Ar 1.8688 1.78112 -5.31674
Ar -1.87808 2.09401 -5.42051
Ar -1.76931 -1.87684 -5.3388
Ar 1.88829 -2.00045 -5.35577
38
Atoms. Timestep: 130000
Ar 1.9032 1.94226 0.0348513
Ar 5.75713 1.89729 0.0183498
Ar 2.02424 5.72423 -0.0139323
Ar -1.92331 1.83797 0.0208429
Ar -5.64937 1.93811 -0.00251796
Ar -1.70469 5.58199 -0.045271
Ar -1.85674 -1.85623 0.0250189
Ar -5.8759 -1.9613 0.132719
Ar -1.87682 -5.69188 -0.0302716
Ar 1.85908 -1.86397 -0.0709351
Ar 5.73233 -1.82799 -0.0304245
Ar 1.91659 -5.66906 -0.0268496
Ar -0.0137697 0.0243633 2.6731
Ar 3.67709 -0.0235809 2.5478
Ar -3.86023 -0.0133103 2.73565
Ar 0.0413953 3.73302 2.7117
Ar 0.0602874 -3.73602 2.58453
Ar 3.79805 3.8378 2.75603
Ar -3.79664 3.87947 2.5829
Ar -3.72678 -3.75403 2.61642
Ar 3.7413 -3.75089 2.57714
Ar -0.0710293 -0.00847981 -2.61233
Ar 3.69233 0.105111 -2.71865
Ar -3.83422 -0.0479535 -2.63073
Ar 0.0561573 3.72794 -2.68875
Ar -0.0226713 -3.76956 -2.66825
Ar 3.87503 3.74713 -2.55587
Ar -3.71184 3.77723 -2.64063
Ar -3.82066 -3.85433 -2.58268
Ar 3.97681 -3.67436 -2.63591
Ar 1.88121 1.82387 5.46749
Ar -1.99115 1.98512 5.2542
Ar -1.84816 -1.87006 5.35522
Ar 1.9046 -1.91174 5.2502
Ar 1.83464 1.85685 -5.38774
Ar -2.00649 1.81908 -5.37615
Ar -1.92825 -2.00399 -5.34653
Ar 1.78924 -1.94909 -5.27976
38
Atoms. Timestep: 140000
Ar 1.82699 1.9343 -0.0335808
Ar 5.78049 1.79984 0.0174459
Ar 1.81344 5.71603 -0.073555
Ar -1.93868 1.87043 0.0181623
Ar -5.61395 1.79398 0.0598452
Ar -1.97376 5.7225 -0.0337676
Ar -1.83728 -1.88321 -0.00345995
Ar -5.5786 -1.89971 -0.133093
Ar -1.86167 -5.58263 0.0712124
Ar 1.8218 -1.88622 0.0711691
Ar 5.68145 -2.0192 -0.119824
Ar 1.88709 -5.73133 0.067608
Ar -0.0603683 0.0510342 2.66672
Ar 3.73367 -0.00313159 2.6126
Ar -3.80341 -0.00382388 2.70279
Ar -0.0104345 3.87746 2.66531
Ar -0.0273608 -3.71673 2.78362
Ar 3.88028 3.77652 2.57094
Ar -3.74713 3.83798 2.73622
Ar -3.72871 -3.78762 2.70801
Ar 3.81605 -3.86812 2.62415
Ar -0.0345075 -0.0540034 -2.68832
Ar 3.75192 0.0262608 -2.61823
Ar -3.77593 -0.0347055 -2.77154
Ar -0.0498049 3.66785 -2.60636
Ar -0.00411205 -3.77832 -2.66475
Ar 3.80635 3.77861 -2.57523
Ar -3.80847 3.84762 -2.65075
Ar -3.69442 -3.82138 -2.65045
Ar 3.74814 -3.73113 -2.75225
Ar 1.84642 1.94687 5.29886
Ar -1.80697 1.9225 5.43044
Ar -1.91554 -1.83758 5.29203
Ar 1.93771 -1.93547 5.38383
Ar 1.79234 1.82065 -5.2949
Ar -1.93132 1.95457 -5.36002
Ar -1.84913 -1.87391 -5.46099
Ar 1.9294 -1.89577 -5.28989
38
Atoms. Timestep: 150000
Ar 1.86881 1.7872 -0.0607138
Ar 5.545 1.92435 -0.116835
Ar 1.82654 5.71187 0.000428421
Ar -1.81686 1.87431 0.0769234
Ar -5.67081 2.01525 -0.0893184
Ar -1.92995 5.59829 0.0912292
Ar -1.91007 -1.81341 0.0471418
Ar -5.63717 -1.82388 0.0237376
Ar -1.83179 -5.79703 0.0471262
Ar 1.83692 -1.89239 -0.00978635
Ar 5.67799 -1.94932 0.0456685
Ar 2.0075 -5.5918 0.1465
Ar -0.0112965 -0.0591248 2.62831
Ar 3.74542 0.0552088 2.65969
Ar -3.78038 0.045807 2.6385
Ar 0.0103428 3.67067 2.67951
Ar -0.0329483 -3.76114 2.72166
Ar 3.79445 3.7574 2.62587
Ar -3.79019 3.75244 2.78094
Ar -3.7234 -3.75503 2.54519
Ar 3.76432 -3.7306 2.7498
Ar 0.0140942 -0.00367702 -2.69313
Ar 3.75436 -0.0157922 -2.74982
Ar -3.6916 0.0176189 -2.65673
Ar 0.0726709 3.78926 -2.70364
Ar 0.0380395 -3.80763 -2.5311
Ar 3.70863 3.75865 -2.80659
Ar -3.69699 3.8357 -2.67786
Ar -3.73886 -3.73437 -2.66268
Ar 3.78237 -3.82641 -2.67471
Ar 1.9011 1.92686 5.38018
Ar -1.83488 1.77212 5.37081
Ar -1.87044 -1.94883 5.34203
Ar 1.80517 -1.79115 5.35142
Ar 1.79598 1.86048 -5.41318
Ar -1.93972 1.87478 -5.37441
Ar -1.84753 -1.81842 -5.34717
Ar 1.80717 -1.90723 -5.385
38
Atoms. Timestep: 160000
Ar 1.9101 1.92031 -0.00607692
Ar 5.77774 1.90769 0.0558316
Ar 1.80801 5.72595 -0.0934076
Ar -1.88072 1.82524 -0.0165711
Ar -5.67013 2.0036 -0.0431383
Ar -2.05896 5.65867 0.0332964
Ar -1.90471 -1.87916 0.0369925
Ar -5.70568 -1.85955 0.120151
Ar -1.9248 -5.64392 0.0304622
Ar 1.86113 -1.88364 -0.0401277
Ar 5.69542 -1.8598 -0.0125212
Ar 1.92935 -5.65602 -0.0291635
Ar 0.019602 0.0388807 2.56511
Ar 3.79075 -0.00951505 2.63973
Ar -3.80141 0.0334895 2.67763
Ar 0.038653 3.67354 2.66558
Ar 0.0738963 -3.80908 2.69864
Ar 3.83759 3.75289 2.69798
Ar -3.85876 3.76427 2.60693
Ar -3.70772 -3.85129 2.76056
Ar 3.85896 -3.7667 2.65079
Ar 0.0444674 -0.0151224 -2.60907
Ar 3.77182 0.0109321 -2.59286
Ar -3.78719 -0.00581317 -2.68725
Ar -0.068683 3.79007 -2.62158
Ar -0.00553222 -3.75279 -2.69991
Ar 3.80216 3.73105 -2.59375
Ar -3.72916 3.72712 -2.73001
Ar -3.91241 -3.79234 -2.64004
Ar 3.7236 -3.808 -2.65236
Ar 1.89403 1.86234 5.26602
Ar -1.97854 1.99304 5.32118
Ar -1.80873 -1.83589 5.23054
Ar 1.93208 -1.90635 5.29073
Ar 2.00645 1.89556 -5.28619
Ar -1.79084 1.81011 -5.3283
Ar -1.96724 -1.96305 -5.28677
Ar 1.78741 -1.82571 -5.37906
38
Atoms. Timestep: 170000
Ar 1.82451 1.89995 0.0364421
Ar 5.65263 1.83812 0.0294315
Ar 1.9606 5.67632 -0.100692
Ar -1.87862 1.8776 -0.0424901
Ar -5.64147 1.93191 -0.00988459
Ar -1.91577 5.6041 -0.0107879
Ar -1.95266 -1.88842 0.0313465
Ar -5.71413 -1.83112 -0.124646
Ar -2.0476 -5.69005 0.00691852
Ar 1.91988 -1.88068 0.0148185
Ar 5.73982 -1.91479 -0.017024
Ar 1.99072 -5.70803 0.0221142
Ar -0.00728634 0.065003 2.67531
Ar 3.8886 0.0461346 2.76801
Ar -3.80639 -0.0167053 2.70396
Ar -0.0365548 3.80631 2.63063
Ar 0.031074 -3.77051 2.59071
Ar 3.77295 3.88439 2.63835
Ar -3.82526 3.81616 2.75475
Ar -3.8116 -3.83156 2.66995
Ar 3.89219 -3.67139 2.67099
Ar -0.049105 -0.119537 -2.58039
Ar 3.80484 -0.00524047 -2.64162
Ar -3.74034 0.0153335 -2.69494
Ar 0.017842 3.6689 -2.64084
Ar 0.0359212 -3.7837 -2.6207
Ar 3.69685 3.70545 -2.65773
Ar -3.80064 3.75413 -2.63077
Ar -3.66281 -3.8093 -2.69561
Ar 3.75816 -3.75541 -2.63626
Ar 1.93149 2.01929 5.34547
Ar -1.80532 1.8434 5.31061
Ar -1.86031 -2.0178 5.25324
Ar 1.88775 -1.81549 5.2618
Ar 1.82177 1.8998 -5.30483
Ar -1.94855 1.91932 -5.34431
Ar -1.96922 -1.88075 -5.38855
Ar 1.84802 -1.88015 -5.27276
38
Atoms. Timestep: 180000
Ar 1.87772 1.8592 0.0726658
Ar 5.5502 1.98856 -0.000620648
Ar 1.92835 5.71446 0.0584099
Ar -1.8367 1.9664 0.027207
Ar -5.66566 1.90768 0.032348
Ar -1.85841 5.72471 0.0574602
Ar -1.83991 -1.91142 -0.0315928
Ar -5.62062 -2.00678 0.00151637
Ar -1.79569 -5.74567 0.0130223
Ar 1.91163 -1.89106 0.00491752
Ar 5.57961 -1.85666 0.0365965
Ar 2.00296 -5.71586 0.104583
Ar -0.0512641 -0.120107 2.65287
Ar 3.70428 -0.0384214 2.71022
Ar -3.77395 0.059702 2.67975
Ar 0.00045107 3.74351 2.57292
Ar 0.0196394 -3.78202 2.58127
Ar 3.78066 3.80193 2.65597
Ar -3.76114 3.82567 2.68645
Ar -3.80454 -3.79617 2.68705
Ar 3.76995 -3.75187 2.71364
Ar -0.00492177 -0.0126445 -2.71921
Ar 3.67222 -0.052718 -2.60962
Ar -3.76561 0.108344 -2.65026
Ar -0.0837894 3.75033 -2.7623
Ar 0.030238 -3.77707 -2.67439
Ar 3.69016 3.73838 -2.73833
Ar -3.79083 3.80443 -2.64733
Ar -3.72066 -3.79144 -2.64695
Ar 3.80555 -3.79007 -2.58529
Ar 2.0008 1.97637 5.3827
Ar -1.88708 1.84572 5.35689
Ar -1.96141 -1.82632 5.3969
Ar 1.88856 -1.91688 5.33301
Ar 1.8499 1.86469 -5.61264
Ar -1.93936 1.7986 -5.33346
Ar -1.80202 -1.82846 -5.40252
Ar 1.90268 -1.86606 -5.40387
38
Atoms. Timestep: 190000
Ar 1.82258 1.81382 0.0691974
Ar 5.56866 1.77244 0.00479265
Ar 1.8549 5.66971 0.0245534
Ar -1.91249 1.82666 -0.0936352
Ar -5.76592 1.9329 -0.195029
Ar -1.93335 5.66829 -0.00540074
Ar -1.86477 -1.84256 -0.0166128
Ar -5.68729 -1.78218 0.160529
Ar -1.86221 -5.54495 0.0763472
Ar 1.88189 -1.85512 -0.00287021
Ar 5.79446 -1.96546 -0.0407986
Ar 1.99164 -5.58008 0.00262813
Ar -0.0294655 0.05856 2.67202
Ar 3.74825 -0.092538 2.64865
Ar -3.70696 0.0148137 2.64256
Ar -0.0908126 3.77099 2.64503
Ar 0.00679131 -3.72573 2.65232
Ar 3.76343 3.66312 2.71992
Ar -3.88647 3.81517 2.57672
Ar -3.81874 -3.65549 2.81141
Ar 3.94023 -3.85665 2.73653
Ar 0.0780532 0.043738 -2.69864
Ar 3.86543 -0.0742694 -2.66877
Ar -3.71522 -0.0935097 -2.70634
Ar -0.0844801 3.81317 -2.71283
Ar -0.018303 -3.69278 -2.67934
Ar 3.73897 3.69418 -2.5994
Ar -3.8124 3.64114 -2.68224
Ar -3.81489 -3.83895 -2.504
Ar 3.74541 -3.70698 -2.77945
Ar 1.92217 1.80616 5.38898
Ar -1.97343 1.91114 5.37037
Ar -1.77157 -1.95873 5.44991
Ar 1.95056 -1.82661 5.43707
Ar 1.89645 2.12126 -5.3899
Ar -1.9261 1.92183 -5.49309
Ar -1.81244 -2.06029 -5.32015
Ar 1.91945 -1.80519 -5.50104
38
Atoms. Timestep: 200000
Ar 1.85308 1.94212 -0.0405724
Ar 5.59595 1.90518 0.0589064
Ar 1.79482 5.66415 -0.028935
Ar -1.86748 1.98104 0.0208
Ar -5.71724 1.87318 0.067661
Ar -1.98705 5.69064 0.185236
Ar -1.89872 -1.80392 -0.054249
Ar -5.7989 -1.97281 -0.167536
Ar -1.92045 -5.75269 -0.0324739
Ar 2.0175 -1.7883 -0.0269962
Ar 5.78999 -1.86921 0.0403214
Ar 1.9458 -5.67979 0.093594
Ar 0.0282664 0.079464 2.65429
Ar 3.87155 -0.00244622 2.71094
Ar -3.67736 0.0115217 2.64726
Ar 0.0716887 3.84199 2.77971
Ar -0.0635698 -3.66827 2.52503
Ar 3.64609 3.85357 2.62007
Ar -3.73415 3.83476 2.7505
Ar -3.82215 -3.75953 2.60571
Ar 3.81374 -3.7882 2.68075
Ar 0.0238405 0.00706188 -2.61098
Ar 3.90724 -0.0136151 -2.76227
Ar -3.84754 0.124395 -2.61606
Ar -0.0915162 3.82766 -2.71991
Ar 0.0722143 -3.69586 -2.58203
Ar 3.69786 3.73762 -2.75256
Ar -3.77389 3.78785 -2.66518
Ar -3.69914 -3.87152 -2.67889
Ar 3.89088 -3.7994 -2.59411
Ar 2.02365 1.75833 5.37816
Ar -1.9839 1.88383 5.26675
Ar -1.99286 -1.88427 5.32849
Ar 1.9075 -1.94854 5.23799
Ar 1.74571 1.67935 -5.40409
Ar -1.97453 1.816 -5.39734
Ar -1.80676 -1.93851 -5.21516
Ar 1.96185 -2.06183 -5.30281
38
Atoms. Timestep: 210000
Ar 1.8899 2.00337 0.0131596
Ar 5.61036 1.86909 -0.0986426
Ar 1.93499 5.70985 0.145612
Ar -1.82535 1.94054 -0.0665209
Ar -5.6228 1.91103 -0.057348
Ar -1.86122 5.64865 -0.082782
Ar -1.85318 -1.81116 0.0181803
Ar -5.68494 -2.15472 0.233314
Ar -1.86121 -5.70715 -0.108576
Ar 1.85065 -1.85487 -0.0177109
Ar 5.53932 -1.97426 0.0199651
Ar 1.99823 -5.66481 -0.198428
Ar -0.0257084 0.143564 2.64575
Ar 3.77375 -0.0221641 2.69128
Ar -3.69778 -0.0161322 2.68161
Ar -0.121059 3.76429 2.72985
Ar -0.0348323 -3.73857 2.6107
Ar 3.75478 3.69829 2.6697
Ar -3.75555 3.89445 2.48833
Ar -3.69673 -4.0625 2.72209
Ar 3.69508 -3.93424 2.79967
Ar 0.0331901 -0.00316098 -2.62913
Ar 3.85458 0.0506856 -2.75442
Ar -3.73739 -0.0848501 -2.5616
Ar 0.072495 3.75963 -2.85638
Ar -0.0234057 -3.71746 -2.61664
Ar 3.78183 3.94906 -2.63167
Ar -3.67053 3.77675 -2.7082
Ar -3.87971 -3.89364 -2.62414
Ar 3.75309 -3.5941 -2.8054
Ar 1.85409 1.89712 5.35325
Ar -2.13466 1.95345 5.28404
Ar -1.82239 -1.76176 5.5383
Ar 1.99125 -1.8839 5.3407
Ar 2.08396 1.91994 -5.35211
Ar -1.87584 1.78486 -5.2991
Ar -2.04245 -1.9167 -5.2083
Ar 1.75718 -1.87744 -5.3084
38
Atoms. Timestep: 220000
Ar 1.9399 1.84439 -0.0500541
Ar 5.80597 1.9356 0.0206256
Ar 1.85403 5.76934 -0.0764536
Ar -1.83337 1.79291 0.0181049
Ar -5.665 1.86568 0.132426
Ar -2.00419 5.61243 -0.0515349
Ar -1.90342 -1.93158 0.00670228
Ar -5.68386 -1.7965 0.0484183
Ar -2.09741 -5.86351 0.0154685
Ar 1.87979 -1.79812 -0.0267284
Ar 5.74009 -1.78544 -0.00626748
Ar 1.87175 -5.61443 0.0272804
Ar 0.0557692 0.0347369 2.61892
Ar 3.78625 0.00802651 2.57419
Ar -3.79844 -0.0676814 2.72411
Ar 0.0235246 3.84666 2.60249
Ar -0.00915288 -3.65579 2.5709
Ar 3.72285 3.85437 2.53369
Ar -3.66733 3.71643 2.66448
Ar -3.9067 -3.79171 2.60317
Ar 3.61725 -3.68482 2.53751
Ar 0.131804 0.0711959 -2.64236
Ar 3.84431 -0.0334885 -2.71583
Ar -3.68832 -0.0316046 -2.66907
Ar -0.0867963 3.81461 -2.62746
Ar -0.0454414 -3.70683 -2.60888
Ar 3.95698 3.8557 -2.57209
Ar -3.93616 3.66985 -2.61812
Ar -3.8941 -3.87407 -2.50981
Ar 3.67558 -3.75641 -2.63013
Ar 1.96651 1.90432 5.26834
Ar -1.8712 1.72425 5.35876
Ar -1.94156 -2.00511 5.25209
Ar 1.90507 -1.84604 5.36265
Ar 1.95273 1.95505 -5.09632
Ar -1.77384 1.81004 -5.32979
Ar -1.83454 -1.92959 -5.3368
Ar 1.9127 -1.91187 -5.37263
38
Atoms. Timestep: 230000
Ar 1.89932 1.91276 0.0873437
Ar 5.74942 1.65307 -0.0256668
Ar 1.79523 5.81428 0.114641
Ar -1.82067 1.86146 -0.0657772
Ar -5.72398 1.93914 -0.144951
Ar -1.8874 5.68115 -0.0194569
Ar -1.89489 -1.89806 -0.107534
Ar -5.71708 -1.79123 0.0666583
Ar -1.80513 -5.74425 -0.044972
Ar 1.91659 -1.84616 0.0992407
Ar 5.58351 -2.02645 -0.122189
Ar 1.93637 -5.69792 -0.053979
Ar 0.0562936 0.0600958 2.63718
Ar 3.93691 0.11395 2.7187
Ar -3.6933 0.0695963 2.59371
Ar -0.00717185 3.76583 2.67337
Ar 0.107655 -3.78108 2.65379
Ar 3.78784 3.86033 2.66327
Ar -3.78219 3.83975 2.54081
Ar -3.62123 -3.72161 2.63576
Ar 3.81627 -3.66424 2.70265
Ar -0.0697541 -0.0200878 -2.66478
Ar 3.64967 0.00780143 -2.5712
Ar -3.8314 -0.152206 -2.63463
Ar 0.0301764 3.79404 -2.69128
Ar 0.0460644 -3.96283 -2.6894
Ar 3.82139 3.77053 -2.48315
Ar -3.8451 4.01171 -2.70671
Ar -3.95961 -3.88536 -2.6507
Ar 3.70076 -3.77781 -2.75365
Ar 1.86337 1.78893 5.40398
Ar -1.8763 1.88844 5.30262
Ar -1.80571 -1.81983 5.259
Ar 1.87493 -1.92726 5.3528
Ar 1.8776 1.96469 -5.35669
Ar -2.01002 1.79267 -5.19866
Ar -1.93638 -2.08302 -5.23508
Ar 1.83994 -1.78982 -5.28506
38
Atoms. Timestep: 240000
Ar 1.8884 1.83886 -0.00377238
Ar 5.56415 1.82122 -0.101772
Ar 1.95918 5.6729 -0.0726356
Ar -1.91334 1.90168 -0.0447838
Ar -5.59782 1.89896 -0.0153445
Ar -1.89105 5.67908 0.140762
Ar -1.84003 -1.83375 0.0309589
Ar -5.77817 -1.9497 0.00469776
Ar -1.83939 -5.66112 -0.0206455
Ar 1.85584 -1.89042 0.0216095
Ar 5.7155 -1.92841 -0.0718914
Ar 1.94315 -5.4913 0.0463251
Ar -0.043757 -0.0430348 2.66262
Ar 3.7939 0.00450286 2.61664
Ar -3.77237 0.0307935 2.60542
Ar 0.00991075 3.72166 2.58746
Ar 0.028521 -3.72995 2.65929
Ar 3.8072 3.90312 2.66415
Ar -3.88335 3.7717 2.81069
Ar -3.7591 -3.80906 2.66038
Ar 3.88411 -3.77725 2.71619
Ar -0.0190188 0.0422732 -2.63014
Ar 3.63744 -0.0539439 -2.66684
Ar -3.68864 -0.00805576 -2.61275
Ar -0.0792283 3.75841 -2.67903
Ar 0.043809 -3.64386 -2.62016
Ar 3.68207 3.73429 -2.6835
Ar -3.79757 3.8542 -2.63531
Ar -3.68978 -3.8528 -2.65143
Ar 3.78651 -3.9339 -2.70856
Ar 1.91868 1.94164 5.248
Ar -1.77995 1.91138 5.3897
Ar -2.04351 -1.81457 5.45133
Ar 1.79817 -1.94862 5.42848
Ar 1.868 1.75947 -5.38966
Ar -1.95013 1.83988 -5.28041
Ar -1.77203 -1.84161 -5.35772
Ar 1.9557 -1.87366 -5.49834
38
Atoms. Timestep: 250000
Ar 1.78042 1.89607 0.0810843
Ar 5.63421 1.86311 -0.00649934
Ar 1.73755 5.60399 -0.0620695
Ar -1.8744 1.83289 0.0311206
Ar -5.56628 1.93114 -0.0544745
Ar -1.9187 5.61741 -0.0476468
Ar -1.88071 -1.89883 -0.0112404
Ar -5.74671 -1.87108 0.0580161
Ar -1.98982 -5.66789 -0.0256621
Ar 1.90005 -1.80759 0.0221364
Ar 5.64621 -1.85426 -0.183187
Ar 1.92525 -5.57418 0.000599499
Ar 0.0434828 -0.040233 2.68799
Ar 3.76432 0.0700852 2.64016
Ar -3.72023 -0.0818673 2.79406
Ar 0.0407773 3.80922 2.75989
Ar -0.0235575 -3.76793 2.64796
Ar 3.838 3.94635 2.6652
Ar -3.78001 3.68815 2.70439
Ar -3.88438 -3.7874 2.75137
Ar 3.82266 -3.72801 2.78826
Ar 0.0693589 0.0580156 -2.6865
Ar 3.72776 -0.041827 -2.80113
Ar -3.74828 0.0355325 -2.666
Ar -0.0465343 3.79744 -2.8073
Ar -0.0947575 -3.77147 -2.5453
Ar 3.68664 3.78656 -2.62677
Ar -3.68018 3.90224 -2.74129
Ar -3.96422 -3.67601 -2.70932
Ar 3.76588 -3.77174 -2.56975
Ar 1.93273 1.85848 5.4556
Ar -1.82688 1.66095 5.35053
Ar -1.75247 -1.96528 5.36526
Ar 2.04342 -1.85839 5.47872
Ar 1.93187 1.8934 -5.52518
Ar -1.91407 1.77585 -5.53221
Ar -1.86951 -1.90283 -5.23138
Ar 1.99309 -1.95907 -5.44944
38
Atoms. Timestep: 260000
Ar 1.87297 1.96755 -0.00820483
Ar 5.6317 1.78609 0.044298
Ar 1.85934 5.68559 0.0146373
Ar -1.82229 1.95594 0.0791746
Ar -5.67369 1.77279 0.0822711
Ar -1.84449 5.70496 0.0412028
Ar -1.92996 -1.88536 0.12275
Ar -5.91228 -1.93376 0.221235
Ar -1.79819 -5.70673 0.0639811
Ar 1.87491 -1.80936 -0.0131348
Ar 5.72048 -1.9698 0.0128286
Ar 2.04764 -5.62101 -0.116622
Ar -0.0547285 0.0406261 2.64578
Ar 3.79454 -0.0796071 2.73087
Ar -3.7982 -0.0877324 2.78251