38
Atoms. Timestep: 0
Ar 1.668 1.873 0
Ar 5.651 1.903 0.003
Ar 1.878 5.656 -0.01
Ar -1.867 1.863 -0.007
Ar -5.65 1.873 -0.014
Ar -1.898 5.645 -0.014
Ar -1.857 -1.873 0
Ar -5.64 -1.903 -0.003
Ar -1.867 -5.656 0.01
Ar 1.878 -1.863 0.007
Ar 5.661 -1.873 0.014
Ar 1.909 -5.645 0.014
Ar 0.002 0.007 2.642
Ar 3.751 0.017 2.659
Ar -3.75 -0.003 2.646
Ar -0.008 3.756 2.646
Ar 0.012 -3.745 2.659
Ar 3.761 3.786 2.656
Ar -3.778 3.766 2.646
Ar -3.757 -3.773 2.663
Ar 3.781 -3.752 2.673
Ar 0.009 -0.007 -2.642
Ar 3.761 0.003 -2.646
Ar -3.74 -0.017 -2.659
Ar -0.002 3.746 -2.659
Ar 0.019 -3.756 -2.646
Ar 3.768 3.773 -2.663
Ar -3.771 3.752 -2.673
Ar -3.75 -3.786 -2.656
Ar 3.788 -3.766 -2.646
Ar 1.871 1.897 5.329
Ar -1.888 1.886 5.325
Ar -1.878 -1.873 5.332
Ar 1.881 -1.863 5.339
Ar 1.888 1.873 -5.332
Ar -1.871 1.863 -5.339
Ar -1.861 -1.897 -5.329
Ar 1.898 -1.886 -5.325
38
Atoms. Timestep: 10000
Ar 1.84201 1.88933 0.0953528
Ar 5.74176 1.8212 0.102104
Ar 1.78751 5.66596 -0.0736553
Ar -1.94874 1.934 -0.0868148
Ar -5.80693 1.94142 -0.035579
Ar -1.87888 5.59298 0.011301
Ar -1.86486 -1.9419 -0.0443738
Ar -5.65982 -1.79906 0.0367465
Ar -1.73032 -5.66271 -0.0539617
Ar 2.02443 -1.89813 0.0461109
Ar 5.80154 -2.05105 -0.141864
Ar 2.10484 -5.64027 0.121687
Ar -0.0617402 0.041263 2.75104
Ar 3.87478 -0.0795326 2.79536
Ar -3.7719 0.0453537 2.72656
Ar -0.000163502 3.72678 2.65315
Ar 0.0737416 -3.64969 2.63866
Ar 3.79181 3.72117 2.60302
Ar -3.82952 3.83508 2.65443
Ar -3.77697 -3.81088 2.55405
Ar 3.99571 -3.80812 2.70028
Ar 0.00249149 0.0293654 -2.55019
Ar 3.78722 0.112438 -2.5597
Ar -3.82129 -0.0424087 -2.6707
Ar -0.0440647 3.8036 -2.64658
Ar -0.120265 -3.88406 -2.78027
Ar 3.80705 3.76075 -2.53987
Ar -3.8247 3.75116 -2.83933
Ar -3.85566 -3.77903 -2.50566
Ar 3.75532 -3.71129 -2.85607
Ar 1.82775 1.99882 5.44732
Ar -1.93193 1.88558 5.38722
Ar -1.96615 -1.84103 5.31543
Ar 1.80662 -1.70475 5.37609
Ar 1.99569 1.78669 -5.43605
Ar -1.82818 1.76212 -5.47691
Ar -2.03219 -1.95444 -5.45362
Ar 1.73599 -1.84569 -5.26473
38
Atoms. Timestep: 20000
Ar 1.88198 1.92511 0.0164964
Ar 5.61016 1.94495 -0.0860436
Ar 1.6276 5.63344 -0.0509916
Ar -1.87693 1.91446 -0.0126177
Ar -5.58855 2.12926 -0.0591376
Ar -2.13876 5.77634 -0.108016
Ar -1.88179 -1.96818 0.0175537
Ar -5.67071 -1.73522 0.0863312
Ar -1.84771 -5.89928 -0.00641251
Ar 2.00435 -1.83189 0.0664556
Ar 5.65734 -1.85526 -0.0433046
Ar 1.84123 -5.58718 -0.0281821
Ar 0.0829855 -0.0109039 2.57502
Ar 3.79995 -0.0222359 2.614
Ar -3.83465 0.0982889 2.71575
Ar 0.0896099 3.71714 2.66865
Ar -0.0271653 -3.79527 2.60054
Ar 3.86179 3.96836 2.57057
Ar -3.73122 3.85683 2.79517
Ar -3.79306 -3.94662 2.59052
Ar 3.76324 -3.8848 2.71444
Ar 0.0930305 -0.107104 -2.6221
Ar 3.85683 0.0909799 -2.60461
Ar -3.71373 -0.0266925 -2.64303
Ar -0.0714203 3.71487 -2.74147
Ar -0.0935286 -3.77701 -2.56843
Ar 3.70548 3.9354 -2.64092
Ar -3.84301 3.74881 -2.89315
Ar -3.79422 -3.7012 -2.54909
Ar 3.8445 -3.79921 -2.5789
Ar 2.02982 1.89745 5.27644
Ar -1.78888 1.8936 5.17308
Ar -2.01026 -2.01985 5.39793
Ar 1.85875 -1.97154 5.35061
Ar 1.96635 1.83944 -5.24367
Ar -1.77151 1.78884 -5.33865
Ar -1.95008 -1.97283 -5.22439
Ar 1.85418 -1.9603 -5.18646
38
Atoms. Timestep: 30000
Ar 1.95005 1.90769 -0.0328699
Ar 5.66132 1.67199 0.125315
Ar 2.20958 5.7254 -0.177002
Ar -1.81554 1.98558 0.0644021
Ar -6.40928 1.59101 -0.025992
Ar -1.69344 5.79371 -0.0871262
Ar -1.75045 -2.04012 0.0398571
Ar -5.85056 -2.17722 0.179795
Ar -1.6109 -5.82821 0.0231664
Ar 2.06766 -1.79493 -0.0138293
Ar 5.85378 -2.26928 -0.469561
Ar 2.13646 -5.65784 -0.245722
Ar 0.129698 -0.0428653 2.58703
Ar 3.79252 0.0218992 2.94523
Ar -3.73728 -0.0412342 2.35329
Ar 0.053165 3.95554 2.53384
Ar 0.278462 -3.72745 2.754
Ar 3.72422 3.82547 2.71809
Ar -4.19483 3.843 2.29887
Ar -3.79245 -3.72997 2.84241
Ar 3.79573 -3.70167 2.54082
Ar 0.0414731 -0.0163617 -2.52994
Ar 4.05158 0.102304 -2.776
Ar -3.60697 0.0492282 -2.29087
Ar 0.119301 3.83994 -2.51329
Ar -0.121442 -3.91699 -2.72474
Ar 4.23307 3.59442 -2.68092
Ar -3.95493 3.68193 -2.19601
Ar -3.92201 -3.7797 -2.5865
Ar 3.69798 -3.76307 -3.14163
Ar 1.37536 1.967 5.62376
Ar -2.16532 2.19504 4.99604
Ar -2.02211 -1.6949 5.25285
Ar 1.82041 -1.85225 5.61313
Ar 2.0803 2.02221 -5.31952
Ar -1.83708 1.86637 -4.92563
Ar -2.18079 -1.98495 -5.2364
Ar 1.59527 -1.61972 -5.51832
38
Atoms. Timestep: 40000
Ar 1.79088 1.92239 0.1367
Ar 5.76672 2.04779 -0.000693673
Ar 2.03409 5.75115 0.242633
Ar -1.85391 1.83951 0.0263203
Ar -5.67228 1.90493 -0.0317562
Ar -1.82537 5.64007 -0.0853919
Ar -1.96292 -1.86758 0.0677985
Ar -5.6358 -1.97327 0.0562385
Ar -2.30931 -5.53615 0.163212
Ar 1.68319 -1.77718 0.0304267
Ar 5.93841 -1.6792 -0.204124
Ar 1.72364 -5.54987 -0.137902
Ar -0.0808902 0.122876 2.7973
Ar 3.92953 0.0260058 2.69583
Ar -3.91387 -0.136208 2.83546
Ar -0.11876 4.10569 3.09358
Ar 0.0220218 -3.62177 2.6052
Ar 3.8311 3.65824 2.66095
Ar -3.91349 3.51625 2.72723
Ar -3.90116 -3.82662 3.14389
Ar 3.98508 -3.82522 2.42388
Ar -0.030564 0.0461683 -2.70754
Ar 3.62367 -0.0476437 -2.58125
Ar -3.55016 -0.258984 -2.89592
Ar -0.0219638 3.92653 -2.75275
Ar 0.00579022 -3.79897 -2.95835
Ar 3.77666 4.00736 -3.04434
Ar -3.76363 3.49403 -2.80221
Ar -3.84525 -3.88773 -2.86904
Ar 3.7014 -3.73958 -2.54692
Ar 1.84192 2.01028 5.58132
Ar -1.8256 1.89266 5.64089
Ar -1.77061 -1.84231 5.49568
Ar 1.96992 -2.02594 5.176
Ar 1.97178 1.78318 -5.49576
Ar -1.74773 1.78385 -5.59482
Ar -2.01265 -2.11682 -5.55533
Ar 2.1621 -1.9669 -5.33645
38
Atoms. Timestep: 50000
Ar 1.94268 1.82135 0.0225323
Ar 5.84825 1.77892 0.211542
Ar 1.76961 5.87273 0.345039
Ar -1.84317 1.80567 -0.0668459
Ar -5.49054 1.76622 -0.11771
Ar -1.97785 5.81163 0.00944189
Ar -1.85812 -2.07364 -0.0455982
Ar -5.81143 -1.8176 0.218424
Ar -1.90688 -5.78278 0.0793469
Ar 1.94571 -1.74033 -0.122168
Ar 5.42675 -1.76834 -0.112551
Ar 1.86771 -5.4081 -0.0367452
Ar 0.0950561 -0.172801 2.63438
Ar 4.18778 0.0755692 3.19534
Ar -3.54661 -0.0462446 2.71876
Ar -0.00517018 3.6008 2.53302
Ar -0.00778923 -3.86188 2.87511
Ar 3.77258 4.05202 2.81674
Ar -3.82782 3.70871 2.27032
Ar -3.72913 -3.75254 2.73482
Ar 3.75848 -3.56477 2.85182
Ar -0.124955 0.0261802 -2.84356
Ar 3.79102 0.252741 -2.93925
Ar -3.87871 -0.0822 -2.90327
Ar 0.11606 3.6793 -2.70539
Ar -0.217414 -3.77688 -2.625
Ar 4.0151 4.01544 -2.12332
Ar -3.49485 3.71188 -2.90874
Ar -3.86398 -4.07156 -2.50552
Ar 3.40541 -3.52009 -2.90787
Ar 1.93346 1.63695 5.66871
Ar -1.85762 1.96489 5.35086
Ar -1.79752 -1.64304 5.38106
Ar 1.90179 -2.1295 5.65583
Ar 1.98261 2.06869 -5.63556
Ar -1.69828 1.65002 -5.67474
Ar -2.21191 -2.28233 -5.64554
Ar 1.3917 -1.80413 -5.65372
38
Atoms. Timestep: 60000
Ar 1.79829 1.93901 -0.0166514
Ar 5.62099 2.15954 -0.0453644
Ar 2.07269 5.81911 0.0548233
Ar -1.81291 1.96946 0.116867
Ar -5.51124 1.76432 0.15024
Ar -1.9315 5.80029 -0.0449306
Ar -1.74308 -1.99712 0.127785
Ar -5.39561 -2.03434 0.0158783
Ar -2.06934 -5.88106 -0.21211
Ar 1.93678 -1.92673 -0.131368
Ar 5.61255 -1.72157 -0.120431
Ar 1.76346 -5.6652 0.18183
Ar -0.107637 0.0440816 2.79193
Ar 3.47341 -0.0234014 2.59584
Ar -3.86116 -0.0168122 2.89703
Ar -0.0392978 3.87649 2.69943
Ar 0.0972223 -3.76033 2.70724
Ar 3.58922 3.80121 2.80754
Ar -3.8104 3.91365 2.63517
Ar -3.73608 -3.86397 2.76116
Ar 3.92467 -3.80204 2.42408
Ar -0.0303535 -0.192198 -2.77415
Ar 3.84838 9.72572e-05 -2.69518
Ar -3.75883 -0.00904853 -2.67123
Ar 0.113112 3.70278 -2.72983
Ar 0.0163643 -3.87065 -2.55599
Ar 3.94498 3.90741 -3.01949
Ar -3.7824 3.78575 -2.73721
Ar -3.55278 -3.70519 -2.67739
Ar 3.70526 -3.9808 -2.66544
Ar 1.75167 1.71658 5.49514
Ar -1.87133 2.10286 5.47839
Ar -1.9797 -2.01342 5.49236
Ar 1.76483 -1.96053 5.39207
Ar 1.90018 1.90901 -5.39902
Ar -1.89735 1.80117 -5.39312
Ar -1.93253 -1.68914 -5.63335
Ar 1.89146 -1.89828 -5.30255
38
Atoms. Timestep: 70000
Ar 1.82846 1.84626 -0.0109625
Ar 5.4783 2.03077 -0.0774276
Ar 2.12589 5.5951 0.186798
Ar -1.9514 1.92876 -0.0573624
Ar -5.76428 1.87378 0.0756912
Ar -1.5279 5.60987 -0.0112635
Ar -1.76589 -1.77222 -0.108982
Ar -5.73622 -1.99525 -0.0497488
Ar -1.74594 -5.78275 0.075561
Ar 1.98124 -1.71707 -0.0140164
Ar 5.96177 -1.81807 0.0556964
Ar 1.98568 -5.52915 -0.146084
Ar 0.105236 0.0731176 2.79532
Ar 3.90271 -0.15472 2.68986
Ar -3.7905 0.0173955 2.51495
Ar -0.109879 3.72965 2.77674
Ar -0.0466926 -3.72834 2.59105
Ar 3.50264 3.60267 2.9041
Ar -3.8278 3.83455 2.5319
Ar -3.69763 -3.84824 2.6624
Ar 3.72213 -4.00053 2.73491
Ar 0.0340988 0.0412282 -2.80355
Ar 3.90804 -0.0534289 -2.84661
Ar -3.68692 0.201891 -2.74278
Ar -0.072641 3.88162 -2.78436
Ar 0.00200134 -3.76153 -2.54582
Ar 3.59122 3.63179 -2.86
Ar -4.02267 3.82408 -2.63726
Ar -3.62636 -3.79913 -2.52369
Ar 4.02492 -3.78514 -2.57471
Ar 1.88487 1.71446 5.50656
Ar -2.19077 2.06257 5.39834
Ar -1.92154 -1.74452 5.34979
Ar 1.91177 -2.05588 5.61242
Ar 1.70092 1.79087 -5.58781
Ar -1.8865 2.07809 -5.41052
Ar -2.08685 -1.76951 -5.38492
Ar 1.8085 -2.05206 -5.28422
38
Atoms. Timestep: 80000
Ar 1.83455 1.791 -0.105984
Ar 5.57781 1.70444 0.09221
Ar 1.93246 6.01603 -0.227049
Ar -1.93909 1.80974 -0.14069
Ar -5.83582 2.06069 -0.0933911
Ar -1.76215 5.73581 0.240557
Ar -1.64085 -1.79294 -0.060984
Ar -5.65879 -1.83228 0.141425
Ar -1.70361 -5.95039 -0.232603
Ar 2.02436 -1.9152 0.0745718
Ar 5.71679 -2.18921 0.214336
Ar 1.89077 -5.41324 -0.175128
Ar 0.0726013 -0.0485006 2.73417
Ar 3.74625 0.0461738 2.86172
Ar -3.61442 0.0230944 2.66876
Ar -0.149737 3.54063 2.60075
Ar -0.0572481 -3.79876 2.51748
Ar 3.52652 3.86222 2.57864
Ar -4.13553 3.57887 2.76389
Ar -3.67244 -3.83065 2.36878
Ar 3.63116 -3.71898 2.97253
Ar 0.0476123 0.101913 -2.80358
Ar 3.86484 -0.110068 -2.68881
Ar -3.96524 0.0708257 -2.78679
Ar -0.0497113 3.92674 -2.47704
Ar 0.060552 -3.57111 -2.75438
Ar 3.90242 3.55976 -2.81501
Ar -3.73228 3.93588 -2.4755
Ar -3.6539 -3.75668 -2.32046
Ar 3.84849 -3.81767 -2.81484
Ar 1.93716 2.04608 5.33741
Ar -1.88897 2.19988 5.53283
Ar -1.95447 -1.9926 5.30671
Ar 1.83278 -1.64365 5.70495
Ar 2.03011 1.6773 -5.51356
Ar -2.00469 1.84472 -5.24995
Ar -1.89734 -1.95716 -5.43053
Ar 1.84105 -2.19167 -5.54541
38
Atoms. Timestep: 90000
Ar 1.56737 1.90175 -0.0555278
Ar 5.43085 2.14076 -0.0165009
Ar 2.26052 5.45595 0.0854551
Ar -2.05721 1.69769 0.0185127
Ar -5.85394 1.66433 -0.155923
Ar -1.60884 5.85594 0.254257
Ar -1.98013 -2.06297 0.137622
Ar -5.73625 -2.06357 -0.0962291
Ar -2.07512 -5.80934 0.0278651
Ar 1.72832 -1.8179 -0.0316053
Ar 5.85258 -1.53095 -0.0657367
Ar 1.79801 -5.79069 -0.068994
Ar -0.216565 0.0684384 2.6223
Ar 3.80074 -0.0670886 2.57487
Ar -3.8719 0.084461 2.70354
Ar 0.0242085 3.7788 2.67936
Ar -0.0093082 -3.73871 2.60811
Ar 3.86481 3.80093 3.00705
Ar -3.97121 3.85398 2.18476
Ar -3.61295 -3.77235 2.99763
Ar 3.87638 -3.79723 2.42913
Ar -0.109248 -0.149915 -2.64169
Ar 3.81385 0.083261 -2.66672
Ar -3.8378 0.0561818 -2.83132
Ar -0.0525519 3.81227 -2.63611
Ar 0.186484 -3.78328 -2.62957
Ar 3.69921 3.74305 -2.91992
Ar -3.67436 3.84202 -2.27997
Ar -3.58029 -3.72489 -2.68076
Ar 3.86003 -3.65119 -2.51639
Ar 1.93373 1.88209 5.42926
Ar -2.07595 2.14929 5.56966
Ar -1.81215 -1.66261 5.46789
Ar 2.03468 -1.93196 5.16404
Ar 1.98969 1.64873 -5.38573
Ar -1.90514 1.92175 -5.46397
Ar -1.70222 -1.92256 -5.35298
Ar 2.02368 -2.16348 -5.46567
38
Atoms. Timestep: 100000
Ar 1.7632 1.76059 -0.0654097
Ar 5.56532 1.83705 0.270576
Ar 1.85965 5.57437 0.00167694
Ar -1.84868 1.82852 -0.16814
Ar -5.4309 2.17455 0.235617
Ar -1.8535 5.65835 -0.0672367
Ar -1.76429 -1.83651 -0.0298367
Ar -5.6916 -2.04988 -0.0595317
Ar -1.57503 -5.58449 -0.101391
Ar 2.03522 -1.73884 -0.0756313
Ar 5.7181 -2.02152 -0.0119927
Ar 1.9398 -5.54875 0.0820354
Ar -0.0829658 0.0375194 2.71352
Ar 3.74508 0.164812 2.78502
Ar -3.89721 -0.0592772 2.85669
Ar -0.0580595 3.61285 2.62649
Ar 0.125955 -3.56933 2.73469
Ar 3.70005 3.8563 2.70661
Ar -3.57652 3.70012 2.90547
Ar -3.7482 -3.91508 2.60126
Ar 3.8724 -3.60035 2.73324
Ar 0.0181898 -0.0553876 -2.82959
Ar 4.02081 -0.0267941 -2.71021
Ar -4.10447 0.0341074 -2.60331
Ar -0.0652315 3.86348 -2.79633
Ar -0.0279811 -3.79595 -2.82204
Ar 3.6075 3.73407 -2.6632
Ar -3.76464 3.70107 -3.10616
Ar -3.88068 -3.82139 -2.5845
Ar 3.93857 -3.85978 -2.75015
Ar 1.87851 2.06987 5.4583
Ar -1.78126 1.75011 5.49321
Ar -2.06301 -1.9276 5.49917
Ar 1.67363 -1.50444 5.50912
Ar 2.05203 1.72025 -5.55683
Ar -1.85711 1.78092 -5.46141
Ar -2.13386 -1.96123 -5.30669
Ar 1.69316 -1.98129 -5.4431
38
Atoms. Timestep: 110000
Ar 1.77679 1.93973 -0.00375819
Ar 5.79164 1.95321 0.106264
Ar 1.87606 5.73209 -0.280764
Ar -1.9695 1.98711 -0.109093
Ar -5.60525 1.82826 -0.0581542
Ar -1.94636 5.68961 -0.0566302
Ar -1.81898 -1.72638 -0.0473466
Ar -5.6584 -2.00562 -0.0105115
Ar -1.83325 -5.84628 0.0257011
Ar 1.9224 -1.98537 0.0293262
Ar 5.65564 -2.01131 -0.0618649
Ar 2.08563 -5.67774 0.168843
Ar -0.0870974 -0.0328761 2.63721
Ar 3.76173 0.103221 2.66868
Ar -3.70234 -0.103575 2.68363
Ar -0.0297551 3.73202 2.67661
Ar -0.0656366 -3.57804 2.59637
Ar 3.74629 3.9629 2.48195
Ar -3.75331 3.74374 2.69569
Ar -3.91177 -3.72078 2.74185
Ar 3.74837 -3.74971 2.92394
Ar 0.054864 0.090136 -2.7814
Ar 3.76668 -0.00314923 -2.53104
Ar -3.95944 -0.0568163 -2.82759
Ar -0.0129507 3.81295 -2.6417
Ar 0.121603 -3.70397 -2.54193
Ar 3.79562 3.62044 -2.73273
Ar -3.90106 3.83802 -2.71542
Ar -3.57875 -3.93248 -2.58226
Ar 3.78525 -3.80447 -2.86964
Ar 2.04078 1.90086 5.27662
Ar -1.9935 1.7777 5.5374
Ar -1.86309 -1.94231 5.75156
Ar 1.80967 -1.8277 5.46414
Ar 1.99551 2.04208 -5.48673
Ar -1.81583 1.71177 -5.42172
Ar -2.15662 -2.03792 -5.4104
Ar 1.93035 -1.71834 -5.29511
38
Atoms. Timestep: 120000
Ar 1.74438 1.87069 0.151342
Ar 5.70805 1.54276 -0.0930959
Ar 1.91461 5.52276 -0.0571052
Ar -1.90926 1.84774 -0.136478
Ar -5.73538 1.68397 -0.130379
Ar -1.82261 5.51914 -0.162516
Ar -1.93142 -1.74026 0.21706
Ar -5.76367 -2.39239 -0.02724
Ar -1.88444 -5.60172 0.266383
Ar 1.76852 -1.84673 0.137665
Ar 5.63895 -2.08497 -0.334734
Ar 2.02162 -5.54213 -0.0868378
Ar 0.0909667 0.149164 2.6613
Ar 3.94895 -0.141886 2.71261
Ar -4.05741 0.100054 2.80547
Ar -0.166313 3.87993 2.54747
Ar -0.0161408 -3.6166 2.85583
Ar 3.78764 3.67573 2.64307
Ar -3.93824 4.18132 2.54307
Ar -3.97411 -3.61304 3.1418
Ar 3.74426 -3.72028 2.67258
Ar 0.0221648 -0.0362735 -2.63705
Ar 3.67777 0.0142111 -2.59594
Ar -3.61447 -0.327937 -2.80596
Ar 0.028649 3.80742 -2.75888
Ar 0.107011 -3.63811 -2.48004
Ar 3.89652 4.01074 -2.74178
Ar -3.67882 3.61166 -2.77338
Ar -3.73649 -4.09092 -2.71516
Ar 3.86956 -3.77123 -3.07482
Ar 1.89182 1.93002 5.31874
Ar -2.04671 1.92352 5.75856
Ar -1.7043 -1.85246 5.48575
Ar 2.07259 -1.75667 5.46206
Ar 1.95132 2.21411 -5.26482
Ar -1.83534 1.70256 -5.53161
Ar -1.86394 -2.04669 -5.56655
Ar 1.79572 -1.36618 -5.4064
38
Atoms. Timestep: 130000
Ar 1.83626 1.88456 -0.0686965
Ar 5.89274 1.81946 0.0991643
Ar 1.66243 5.571 -0.14524
Ar -1.60017 1.84801 -0.0236676
Ar -5.23816 2.11119 0.0803413
Ar -2.17599 5.40195 -0.15876
Ar -1.83377 -1.81096 0.0837774
Ar -5.90543 -2.0513 -0.284857
Ar -1.78649 -5.48445 0.149042
Ar 1.81298 -1.80382 0.128288
Ar 5.67277 -2.0789 0.115339
Ar 2.28497 -5.4869 0.122024
Ar 0.094174 -0.0278322 2.72142
Ar 3.93501 0.116379 2.68163
Ar -3.53184 0.121517 2.78785
Ar -0.256238 3.75964 2.73073
Ar 0.0805772 -3.75669 2.74904
Ar 3.73246 3.69999 2.52361
Ar -4.0176 3.77411 3.19859
Ar -3.87064 -3.60754 2.68862
Ar 3.9176 -3.93098 2.94365
Ar -0.0892639 -0.179875 -2.72383
Ar 3.64729 -0.184799 -2.45626
Ar -3.64276 0.106717 -2.84131
Ar -0.221654 3.79493 -2.91078
Ar 0.0423643 -3.77355 -2.64985
Ar 3.82878 3.68289 -2.64987
Ar -3.94242 3.89945 -3.12095
Ar -3.74174 -3.77212 -2.68277
Ar 3.72782 -3.90884 -2.87998
Ar 1.95678 1.99884 5.31828
Ar -1.69566 1.69218 5.84442
Ar -2.22713 -2.08776 5.42217
Ar 1.88951 -1.71634 5.54947
Ar 1.69232 1.97098 -5.61776
Ar -1.96439 1.9149 -5.85497
Ar -1.89149 -1.81494 -5.4907
Ar 1.92801 -1.6901 -5.37723
38
Atoms. Timestep: 140000
Ar 1.89651 1.76954 -0.0121163
Ar 6.00667 1.7336 -0.183402
Ar 1.74621 5.91023 0.334842
Ar -1.66345 1.79607 -0.0822678
Ar -6.17675 1.75976 -0.111965
Ar -1.92191 5.66634 -0.0080275
Ar -1.7751 -1.92983 -0.0495691
Ar -5.68255 -2.02694 0.253984
Ar -1.66195 -5.71841 0.204829
Ar 1.90679 -1.92025 -0.150296
Ar 5.6117 -2.00407 -0.192358
Ar 2.25385 -5.76078 0.0949888
Ar 0.0722057 -0.103448 2.70858
Ar 3.7416 -0.0678433 2.7246
Ar -3.87312 0.317658 2.33663
Ar -0.253058 3.63812 2.78977
Ar 0.145975 -3.54997 2.6444
Ar 3.99507 3.61741 2.33502
Ar -4.13023 3.81626 2.13013
Ar -3.58584 -3.48787 2.93764
Ar 3.78548 -3.79229 2.87333
Ar 0.0344343 -0.0183732 -2.78687
Ar 3.87472 0.0540693 -2.69745
Ar -3.75905 0.0622757 -2.54771
Ar 0.0308825 3.96056 -2.88688
Ar -0.020312 -3.72398 -2.51835
Ar 4.04876 3.83235 -2.47464
Ar -3.86981 3.67709 -2.41953
Ar -3.82274 -3.78598 -2.46395
Ar 3.76393 -3.92576 -2.84151
Ar 1.80168 1.96176 5.21019
Ar -2.28506 1.77408 5.63096
Ar -1.88304 -1.85059 5.55977
Ar 1.79396 -1.74896 5.52224
Ar 1.9098 1.78696 -5.41413
Ar -2.07557 1.92191 -5.51472
Ar -1.96131 -1.75204 -5.59752
Ar 1.98261 -1.8877 -5.33864
38
Atoms. Timestep: 150000
Ar 1.98627 1.83919 0.105868
Ar 5.85247 2.0053 0.0828611
Ar 1.9386 5.98248 0.0158377
Ar -1.80652 1.87649 0.183953
Ar -6.14833 1.56099 -0.19528
Ar -1.64234 6.29801 0.0523949
Ar -1.63505 -2.00422 0.0245009
Ar -5.73976 -2.32267 0.0224217
Ar -1.97151 -5.81701 -0.0275441
Ar 2.23115 -2.03735 -0.0334976
Ar 6.02306 -2.15182 -0.214594
Ar 1.67737 -5.87033 -0.0445915
Ar -0.179186 -0.0266477 2.66572
Ar 3.75062 -0.0538359 2.70625
Ar -3.96814 0.0170743 2.45885
Ar -0.259451 4.01152 2.60972
Ar 0.166732 -3.88997 2.74064
Ar 3.94235 4.01433 2.54392
Ar -4.08557 4.09556 2.00163
Ar -3.50965 -3.55931 2.6593
Ar 3.96044 -4.106 2.5866
Ar -0.0172184 -0.149318 -2.45421
Ar 3.97445 0.253021 -2.92164
Ar -3.8031 -0.344954 -2.55251
Ar 0.13268 3.89003 -2.52458
Ar -0.0197013 -3.9931 -2.6423
Ar 4.17034 3.97734 -2.72262
Ar -3.90854 3.81417 -1.84887
Ar -3.55465 -3.99035 -2.81262
Ar 3.90821 -3.66463 -2.79157
Ar 1.61693 2.26244 5.2187
Ar -2.06533 1.90638 5.0333
Ar -2.06411 -1.84022 5.43793
Ar 1.75378 -1.96477 5.2992
Ar 1.57527 1.82594 -5.3147
Ar -2.21515 1.96154 -4.76307
Ar -1.96006 -1.83663 -5.30011
Ar 1.89464 -1.96765 -5.28528
38
Atoms. Timestep: 160000
Ar 1.72926 1.82943 0.0615483
Ar 5.49717 2.03576 -0.0667142
Ar 2.17103 5.3884 -0.0953157
Ar -1.98293 2.04156 0.122024
Ar -5.80308 1.91972 0.177849
Ar -1.96413 5.96089 -0.319844
Ar -1.87614 -1.80989 0.0119111
Ar -5.6819 -1.89601 0.161199
Ar -1.72202 -5.65517 -0.184366
Ar 1.85226 -1.7546 0.0223797
Ar 5.61311 -1.65532 0.117346
Ar 2.37265 -5.51649 0.00954523
Ar -0.0881159 0.0864087 2.84663
Ar 3.64473 -0.327768 3.01363
Ar -3.89301 -0.0951675 2.91462
Ar -0.0142617 4.07913 2.66115
Ar 0.0521997 -3.73855 2.56135
Ar 3.62389 3.26431 2.87465
Ar -3.70817 4.13443 2.68822
Ar -3.70815 -3.91783 2.91686
Ar 4.10547 -3.96623 3.20373
Ar -0.130862 -0.0145827 -2.62619
Ar 3.73507 0.164382 -2.79161
Ar -3.8626 0.146877 -2.78546
Ar 0.0125897 3.7779 -2.76068
Ar 0.215627 -3.76943 -2.65127
Ar 3.9641 3.76792 -3.19618
Ar -3.87826 4.20844 -2.80184
Ar -3.59406 -4.00124 -2.57097
Ar 4.03735 -3.5572 -2.97877
Ar 1.64958 1.8027 5.64793
Ar -1.96237 1.97546 5.12388
Ar -1.93963 -2.04534 5.75877
Ar 1.73553 -2.29694 5.60065
Ar 1.57515 1.76679 -5.39947
Ar -2.69308 1.66101 -5.9408
Ar -1.34425 -2.13486 -5.57853
Ar 2.26224 -1.85791 -5.74786
38
Atoms. Timestep: 170000
Ar 1.73146 1.86633 -0.12677
Ar 5.75741 1.72801 -0.244696
Ar 1.704 5.93634 0.145085
Ar -1.839 1.86672 -0.0530907
Ar -5.58183 1.80055 -0.296922
Ar -2.19276 5.66706 0.086307
Ar -1.88001 -2.0012 -0.0243313
Ar -5.83362 -1.91625 -0.00757134
Ar -1.75898 -5.63454 0.171771
Ar 1.88791 -1.77869 -0.0535462
Ar 5.60477 -2.18443 -0.0547753
Ar 1.95771 -5.73701 0.221383
Ar 0.0525022 0.129951 2.66626
Ar 3.8205 0.136773 2.58823
Ar -3.92029 0.089819 2.58514
Ar -0.146608 3.87734 2.6384
Ar 0.134631 -3.6402 2.69081
Ar 3.68624 3.83845 2.35904
Ar -3.97659 3.64263 2.68027
Ar -3.97591 -3.62707 2.48524
Ar 4.14801 -3.78246 2.9317
Ar -0.0563942 -0.00589337 -2.71554
Ar 3.96839 -0.135144 -2.84507
Ar -3.78067 -0.0846468 -2.87302
Ar -0.00931822 3.83317 -2.55965
Ar -0.0256118 -3.94832 -2.53898
Ar 3.82224 4.16178 -2.17817
Ar -3.65236 3.58716 -2.76717
Ar -3.99325 -3.99924 -2.37628
Ar 3.70065 -3.8759 -2.80674
Ar 2.21502 1.84939 5.42587
Ar -1.98426 1.73282 5.22037
Ar -1.87415 -1.97861 5.1877
Ar 1.87909 -1.79487 5.59366
Ar 2.23422 2.24694 -5.06085
Ar -1.74539 2.01738 -5.55766
Ar -1.84527 -2.10751 -5.16621
Ar 1.76954 -1.77564 -5.37021
38
Atoms. Timestep: 180000
Ar 1.78243 1.92737 -0.061088
Ar 5.69261 1.95919 -0.0997992
Ar 1.8466 5.84279 -0.0337878
Ar -1.84608 1.93781 -0.0550477
Ar -5.56236 1.86151 0.382809
Ar -2.06322 5.98122 -0.033886
Ar -1.89871 -2.01148 -0.0705491
Ar -5.61967 -2.02357 -0.020543
Ar -1.79762 -5.81285 0.103007
Ar 1.86287 -1.92509 0.0185968
Ar 5.56901 -1.98127 0.10564
Ar 1.98494 -5.51155 -0.0280253
Ar -0.146306 0.104302 2.55865
Ar 3.71279 0.11362 2.52033
Ar -3.67456 -0.104377 2.75299
Ar 0.0625434 3.80693 2.62133
Ar -0.0499192 -3.64737 2.66733
Ar 3.6063 3.9038 2.73686
Ar -3.71138 3.81901 2.70862
Ar -3.82343 -3.99927 2.53083
Ar 3.67347 -3.78868 2.70225
Ar 0.0585968 -0.158369 -2.56383
Ar 3.7647 0.0404272 -2.75989
Ar -3.64151 -0.031983 -2.66047
Ar 0.0632419 3.9908 -2.73458
Ar 0.00368786 -3.8568 -2.61223
Ar 3.88935 4.1099 -2.71734
Ar -3.72068 3.91515 -2.72472
Ar -3.81688 -4.09724 -2.60776
Ar 3.89092 -3.74781 -2.76504
Ar 1.78875 1.90338 5.39304
Ar -1.85693 1.66031 5.3956
Ar -2.15713 -2.10749 5.48625
Ar 1.80009 -1.64866 5.23337
Ar 2.05096 1.68382 -5.51366
Ar -1.64135 1.97865 -5.36201
Ar -1.87072 -2.13676 -5.17898
Ar 1.79663 -1.94839 -5.31427
38
Atoms. Timestep: 190000
Ar 1.88867 2.02711 0.0381942
Ar 5.68907 1.72003 0.0704453
Ar 1.77757 5.80624 -0.0222585
Ar -2.06165 1.76237 -0.0863459
Ar -5.68682 1.92999 -0.199495
Ar -2.10426 5.67804 0.0759076
Ar -1.85694 -1.96935 0.0600998
Ar -5.8087 -1.96238 -0.0484742
Ar -1.84379 -5.78284 0.176258
Ar 1.82466 -1.72514 0.0264023
Ar 5.63823 -2.08508 0.120059
Ar 1.94563 -5.58602 -0.0533845
Ar -0.041869 0.203843 2.55608
Ar 3.94523 -0.0128577 2.68103
Ar -3.82821 -0.137863 2.59848
Ar -0.0915056 3.82913 2.54925
Ar 0.00259571 -3.80324 2.69526
Ar 3.83024 4.03467 2.52316
Ar -3.82724 3.76285 2.8413
Ar -3.94047 -3.80825 2.7957
Ar 3.74261 -3.89454 2.72043
Ar 0.000787287 0.0169988 -2.62285
Ar 3.85908 -0.0322834 -2.66894
Ar -3.75224 -0.127435 -2.71216
Ar -0.000425548 3.75529 -2.54872
Ar 0.0524373 -3.80144 -2.68374
Ar 3.97496 3.81977 -2.47538
Ar -3.63843 3.92038 -2.63923
Ar -3.78242 -3.94017 -2.54429
Ar 3.94644 -3.75993 -2.74659
Ar 1.92375 1.98656 5.26853
Ar -1.9073 1.86174 5.25755
Ar -1.71716 -1.85911 5.26801
Ar 1.97337 -1.82981 5.25661
Ar 1.98662 2.01638 -5.15593
Ar -2.07225 1.63157 -5.44156
Ar -1.87009 -2.04255 -5.26258
Ar 1.8318 -1.60167 -5.66684
38
Atoms. Timestep: 200000
Ar 1.80112 1.83639 0.0445888
Ar 5.53874 1.62449 0.039974
Ar 1.83774 5.96794 -0.189103
Ar -2.05721 1.84157 0.103973
Ar -5.71019 1.72111 0.275842
Ar -1.72856 5.75926 -0.196994
Ar -1.8012 -1.84657 -0.16813
Ar -5.64366 -2.11709 0.0347196
Ar -1.68604 -5.71574 -0.0611225
Ar 1.87257 -1.92411 -0.163564
Ar 5.6815 -2.19096 0.287639
Ar 1.99042 -5.58119 0.237512
Ar -0.0261871 0.101239 2.66683
Ar 3.68991 -0.00216923 2.86042
Ar -3.68145 -0.379084 2.72638
Ar -0.00376021 3.82484 2.53584
Ar 0.140767 -3.60524 2.69534
Ar 4.09473 3.83327 2.64984
Ar -3.76384 4.18416 2.58448
Ar -3.60075 -4.04598 2.60284
Ar 3.88167 -3.99143 3.08194
Ar -0.073477 0.122017 -2.78789
Ar 3.71369 -0.026391 -2.79523
Ar -3.82713 -0.00388358 -2.72427
Ar 0.0667352 3.85492 -2.81558
Ar 0.133391 -3.75894 -2.87804
Ar 3.65453 3.67256 -2.6414
Ar -4.0355 3.84585 -2.29012
Ar -3.71913 -3.93787 -2.8395
Ar 3.90969 -4.01898 -2.73858
Ar 1.78965 2.06595 5.30357
Ar -2.20286 2.09811 5.10929
Ar -1.82833 -1.99159 5.4287
Ar 1.92588 -1.76928 5.56081
Ar 1.79686 1.92157 -5.49642
Ar -2.12539 2.16047 -5.29049
Ar -1.89025 -1.70544 -5.42636
Ar 1.88735 -1.82277 -5.32772
38
Atoms. Timestep: 210000
Ar 1.82187 1.83557 -0.221496
Ar 5.74073 2.23862 -0.146942
Ar 1.85623 5.73456 -0.102029
Ar -1.99719 1.69724 0.115212
Ar -5.7058 2.19191 0.129926
Ar -1.91895 5.52914 0.152121
Ar -1.82506 -1.9631 -0.248779
Ar -5.84996 -1.8494 -0.144379
Ar -1.95794 -6.02611 -0.00108405
Ar 1.90287 -1.93198 -0.0409109
Ar 5.82428 -2.08418 0.0229739
Ar 2.06757 -5.78248 0.183538
Ar -0.0263118 -0.128281 2.66204
Ar 3.74176 0.253986 2.58123
Ar -3.87822 -0.00819821 2.66072
Ar 0.142971 3.59852 2.40593
Ar -0.157966 -3.7949 2.47906
Ar 4.06804 3.91812 2.63377
Ar -3.71179 3.86602 2.91747
Ar -3.75242 -3.92189 2.28896
Ar 3.82265 -3.43915 2.81997
Ar -0.000682196 0.00606752 -2.72057
Ar 3.93505 0.0179436 -2.60124
Ar -3.93695 0.140645 -2.61257
Ar -0.295422 3.75194 -2.67466
Ar 0.0919198 -3.84737 -2.64618
Ar 3.73197 4.08016 -2.69165
Ar -3.84058 3.715 -2.52755
Ar -3.7807 -3.93693 -2.63779
Ar 3.91406 -3.89989 -2.54181
Ar 1.82835 2.02938 5.14245
Ar -1.80763 1.93972 5.36735
Ar -1.97032 -1.89515 5.41752
Ar 1.73702 -1.69178 5.43191
Ar 1.83046 1.86286 -5.193
Ar -2.03757 1.77311 -5.31189
Ar -1.78997 -1.92795 -5.15117
Ar 2.18563 -2.05077 -5.19644
38
Atoms. Timestep: 220000
Ar 1.74561 2.14255 0.0894761
Ar 5.38853 2.22734 0.014864
Ar 2.33927 5.65953 -0.004757
Ar -1.88116 1.81523 0.0330849
Ar -5.8995 1.51585 -0.0940649
Ar -1.3807 5.71007 0.128922
Ar -2.07038 -1.93838 -0.089476
Ar -5.62622 -2.43375 -0.161688
Ar -2.40036 -5.44568 -0.319796
Ar 1.82778 -1.71258 -0.0048151
Ar 5.82866 -1.43664 -0.0424359
Ar 1.88796 -5.81897 0.215756
Ar 0.0345693 0.112121 2.65952
Ar 3.72294 0.200866 2.62805
Ar -3.80772 -0.116913 2.86211
Ar 0.0354698 3.87054 2.8683
Ar -0.0829759 -3.48737 2.65106
Ar 3.8311 4.0031 2.8866
Ar -3.73239 3.696 2.55748
Ar -3.7523 -4.00252 3.08377
Ar 3.93422 -3.59213 2.53775
Ar -0.0547319 -0.106723 -2.43208
Ar 3.66213 -0.152685 -2.74327
Ar -4.01483 -0.0675653 -2.85178
Ar -0.054096 3.91139 -2.75421
Ar 0.172313 -3.9526 -2.52192
Ar 3.50018 3.44114 -2.95742
Ar -3.85368 3.79516 -2.44456
Ar -3.47916 -3.71118 -3.6893
Ar 3.84642 -3.83795 -2.15965
Ar 1.96674 1.86162 5.33633
Ar -1.9049 2.03036 5.30876
Ar -1.69817 -1.58966 5.62964
Ar 1.9651 -2.01846 5.26318
Ar 1.44974 1.20103 -5.4531
Ar -2.15913 2.11742 -5.18875
Ar -1.48115 -1.44818 -5.75003
Ar 2.19682 -2.4404 -5.09155
38
Atoms. Timestep: 230000
Ar 1.88053 1.95648 0.180017
Ar 6.04505 1.74353 0.0701482
Ar 1.71678 5.83286 0.0456195
Ar -1.9276 1.7755 -0.0506428
Ar -5.56431 1.85259 -0.236471
Ar -2.24532 5.6748 -0.0498213
Ar -2.05237 -1.96997 0.220512
Ar -5.97867 -2.04744 0.0816897
Ar -1.87767 -5.82498 0.204317
Ar 1.9903 -1.74297 0.196717
Ar 5.61626 -2.0606 -0.189552
Ar 1.84858 -5.6506 -0.28972
Ar -0.235834 -0.0390946 2.75601
Ar 3.76832 0.0129652 2.76983
Ar -3.90116 -0.128622 2.59042
Ar 0.0594496 3.86162 2.50065
Ar 0.183397 -3.67437 2.7727
Ar 4.30078 4.03868 2.40686
Ar -4.41365 3.55285 2.72001
Ar -3.62217 -3.71559 2.91092
Ar 3.77517 -4.08163 2.29581
Ar 0.0766665 0.0157849 -2.57682
Ar 3.852 0.187714 -2.90643
Ar -3.52133 -0.404065 -2.68924
Ar 0.122015 3.71945 -2.51065
Ar -0.263104 -3.63064 -2.59167
Ar 3.82533 3.82522 -2.07908
Ar -3.49369 3.20121 -2.91898
Ar -3.98414 -4.32457 -2.42484
Ar 3.46731 -3.71133 -3.17689
Ar 2.15503 2.36119 5.19511
Ar -1.89383 2.28166 5.38434
Ar -2.03265 -1.72369 5.65113
Ar 1.92153 -1.55478 5.6703
Ar 2.52047 2.34094 -5.2673
Ar -1.53434 1.752 -5.32828
Ar -2.14512 -2.36685 -5.53662
Ar 1.56398 -1.33423 -5.8001
38
Atoms. Timestep: 240000
Ar 1.88173 1.8954 -0.152562
Ar 5.60627 2.37527 0.250518
Ar 1.32928 5.65858 0.272723
Ar -1.7004 2.16993 0.0585412
Ar -5.51822 2.43638 -0.00545378
Ar -2.57178 5.80059 -0.0936354
Ar -1.93234 -1.74143 0.0849886
Ar -5.74169 -1.89916 -0.234022
Ar -1.50062 -5.79683 0.24974
Ar 1.93411 -1.92277 0.174664
Ar 5.38117 -2.12554 -0.189765
Ar 2.21456 -5.69199 -0.094288
Ar 0.193799 -0.0954745 2.76827
Ar 3.90124 0.0157598 2.68412
Ar -3.667 0.280073 2.4889
Ar -0.144574 3.42252 2.92967
Ar -0.0368782 -3.76776 2.73495
Ar 3.52369 3.87394 2.68755
Ar -3.83204 3.92589 3.0331
Ar -3.85058 -3.89685 2.3659
Ar 3.71649 -3.78895 2.93515
Ar 0.0866627 -0.0953361 -2.66395
Ar 3.80502 -0.129592 -2.8987
Ar -3.72061 0.18856 -2.63152
Ar 0.00560094 3.90165 -2.79642
Ar 0.182974 -3.84962 -2.45439
Ar 3.58762 3.9867 -2.78498
Ar -3.74732 3.86109 -2.83876
Ar -3.61966 -4.23879 -2.39107
Ar 3.72499 -4.2374 -3.30183
Ar 2.09811 1.81523 5.43833
Ar -1.9525 1.98475 5.55348
Ar -2.00559 -1.63521 5.21693
Ar 2.03036 -1.92834 5.78596
Ar 2.04022 1.73966 -5.61381
Ar -1.83751 1.81562 -5.40053
Ar -2.07306 -2.16184 -5.25968
Ar 2.21046 -2.14375 -5.9081
38
Atoms. Timestep: 250000
Ar 1.89426 1.85178 0.0379025
Ar 5.54207 1.99716 -0.0442201
Ar 2.12943 5.76347 -0.0297349
Ar -1.90647 1.887 0.117301
Ar -5.83213 1.86875 -0.0476255
Ar -1.58088 5.51321 0.109984
Ar -1.87229 -1.81862 0.144451
Ar -6.04022 -1.8794 -0.0177196
Ar -1.48907 -5.71143 0.0912244
Ar 1.92213 -1.89095 -0.107628
Ar 5.57916 -1.85085 -0.310036
Ar 2.32444 -5.42589 0.163887
Ar 0.0808678 -0.0211614 2.61203
Ar 3.7386 0.0622947 2.64042
Ar -3.98333 0.263893 2.67207
Ar 0.106398 3.71358 2.96004
Ar -0.084605 -4.25978 3.16747
Ar 4.06611 3.87234 3.02964
Ar -3.78073 3.89447 2.6592
Ar -3.94369 -3.767 2.23624
Ar 3.46783 -3.48801 2.84021
Ar -0.293841 0.103729 -2.59323
Ar 3.48416 0.251573 -3.03017
Ar -4.18121 -0.129075 -2.71818
Ar 0.230465 3.82426 -2.68863
Ar 0.242511 -4.14188 -2.73163
Ar 3.71469 4.24188 -2.78653
Ar -3.43831 3.53863 -2.8762
Ar -3.73437 -3.96677 -2.29021
Ar 4.16585 -3.84101 -2.93115
Ar 2.02521 2.03646 5.63517
Ar -1.76215 1.69158 5.35356
Ar -2.16657 -1.92505 5.22262
Ar 1.66677 -1.77171 5.46877
Ar 1.75221 2.02404 -5.84191
Ar -2.02457 1.56443 -5.59418
Ar -1.8419 -2.16207 -4.94423
Ar 1.82518 -1.91286 -5.57899
38
Atoms. Timestep: 260000
Ar 1.8463 1.63987 0.0508093
Ar 5.63923 1.76541 0.202745
Ar 1.22483 5.81921 -0.205992
Ar -1.79275 1.78966 -0.158758
Ar -5.639 1.99198 0.0496206
Ar -2.56375 5.72665 0.0179035
Ar -1.85757 -1.96773 0.0510534
Ar -5.65309 -1.96278 0.0351065
Ar -1.65853 -5.81543 0.282067
Ar 2.05843 -1.90704 0.042348
Ar 5.6988 -2.46329 -0.0953293
Ar 1.85453 -5.398 -0.0102999
Ar 0.130795 0.00519816 2.60952
Ar 4.22894 0.0749434 2.98999
Ar -3.62605 0.0118061 2.73422
Ar 0.121731 3.82939 2.63879
Ar -0.306791 -3.58021 3.06828
Ar 3.71234 3.87626 2.48521
Ar -3.87316 3.96926 3.11754
Ar -4.05928 -4.01355 2.75888
Ar 3.51605 -3.8807 2.96524
Ar 0.0488256 0.0414032 -2.67254
Ar 3.98014 0.109794 -3.00665