 DBCSR| CPU Multiplication driver                                            SMM
 DBCSR| Multrec recursion limit                                              512
 DBCSR| Multiplication stack size                                           1000
 DBCSR| Maximum elements for images                                    UNLIMITED
 DBCSR| Multiplicative factor virtual images                                   1
 DBCSR| Use multiplication densification                                       T
 DBCSR| Multiplication size stacks                                             3
 DBCSR| Use memory pool for CPU allocation                                     F
 DBCSR| Number of 3D layers                                               SINGLE
 DBCSR| Use MPI memory allocation                                              F
 DBCSR| Use RMA algorithm                                                      F
 DBCSR| Use Communication thread                                               T
 DBCSR| Communication thread load                                             87
 DBCSR| MPI: My node id                                                        0
 DBCSR| MPI: Number of nodes                                                  24
 DBCSR| OMP: Current number of threads                                         1
 DBCSR| OMP: Max number of threads                                             1
 DBCSR| Split modifier for TAS multiplication algorithm                  1.0E+00


  **** **** ******  **  PROGRAM STARTED AT               2023-04-15 11:53:03.891
 ***** ** ***  *** **   PROGRAM STARTED ON                              nid02000
 **    ****   ******    PROGRAM STARTED BY                               ramador
 ***** **    ** ** **   PROGRAM PROCESS ID                                 32465
  **** **  *******  **  PROGRAM STARTED IN /scratch/snx3000/ramador/MMM_2023/ex7
                                           /h2o

 CP2K| version string:                                          CP2K version 9.1
 CP2K| source code revision number:                                  git:d8d7100
 CP2K| cp2kflags: omp libint fftw3 libxc elpa parallel mpi3 scalapack smm_dnn sm
 CP2K|            m max_contr=4 plumed2 spglib sirius libvori libbqb
 CP2K| is freely available from                            https://www.cp2k.org/
 CP2K| Program compiled at                          Mon 21 Feb 15:39:03 CET 2022
 CP2K| Program compiled on                                              daint102
 CP2K| Program compiled for                                     CP2K-9.1-CrayGNU
 CP2K| Data directory path    /apps/daint/UES/jenkins/7.0.UP03/21.09/daint-mc/so
 CP2K| Input file name                                                   h2o.inp

 GLOBAL| Force Environment number                                              1
 GLOBAL| Basis set file name                                        BASIS_MOLOPT
 GLOBAL| Potential file name                                      GTH_POTENTIALS
 GLOBAL| MM Potential file name                                     MM_POTENTIAL
 GLOBAL| Coordinate file name                                            h2o.xyz
 GLOBAL| Method name                                                        CP2K
 GLOBAL| Project name                                                        h2o
 GLOBAL| Run type                                                        GEO_OPT
 GLOBAL| FFT library                                                       FFTW3
 GLOBAL| Diagonalization library                                            ELPA
 GLOBAL| Minimum number of eigenvectors for ELPA usage                        16
 GLOBAL| Orthonormality check for eigenvectors                          DISABLED
 GLOBAL| Matrix multiplication library                                 ScaLAPACK
 GLOBAL| All-to-all communication in single precision                          F
 GLOBAL| FFTs using library dependent lengths                                  F
 GLOBAL| Grid backend                                                       AUTO
 GLOBAL| Global print level                                                  LOW
 GLOBAL| MPI I/O enabled                                                       T
 GLOBAL| Total number of message passing processes                            24
 GLOBAL| Number of threads for this process                                    1
 GLOBAL| This output is from process                                           0
 GLOBAL| Stack size for threads created by OpenMP (OMP_STACKSIZE)        default
 GLOBAL| CPU model name                Intel(R) Xeon(R) CPU E5-2690 v3 @ 2.60GHz
 GLOBAL| CPUID                                                              1002

 MEMORY| system memory details [Kb]
 MEMORY|                        rank 0           min           max       average
 MEMORY| MemTotal             65740148      65740148      65740148      65740148
 MEMORY| MemFree              61119900      61115688      61119900      61117794
 MEMORY| Buffers                  8288          7516          8288          7902
 MEMORY| Cached                1731268       1731268       1754580       1742924
 MEMORY| Slab                   219664        215876        219664        217770
 MEMORY| SReclaimable            50904         49260         50904         50082
 MEMORY| MemLikelyFree        62910360      62910360      62927044      62918702


 GENERATE|  Preliminary Number of Bonds generated:                             0
 GENERATE|  Achieved consistency in connectivity generation.

 *******************************************************************************
 *******************************************************************************
 **                                                                           **
 **     #####                         ##              ##                      **
 **    ##   ##            ##          ##              ##                      **
 **   ##     ##                       ##            ######                    **
 **   ##     ##  ##   ##  ##   #####  ##  ##   ####   ##    #####    #####    **
 **   ##     ##  ##   ##  ##  ##      ## ##   ##      ##   ##   ##  ##   ##   **
 **   ##  ## ##  ##   ##  ##  ##      ####     ###    ##   ######   ######    **
 **    ##  ###   ##   ##  ##  ##      ## ##      ##   ##   ##       ##        **
 **     #######   #####   ##   #####  ##  ##  ####    ##    #####   ##        **
 **           ##                                                    ##        **
 **                                                                           **
 **                                                ... make the atoms dance   **
 **                                                                           **
 **            Copyright (C) by CP2K developers group (2000-2021)             **
 **                      J. Chem. Phys. 152, 194103 (2020)                    **
 **                                                                           **
 *******************************************************************************


 TOTAL NUMBERS AND MAXIMUM NUMBERS

  Total number of            - Atomic kinds:                                   2
                             - Atoms:                                          3
                             - Shell sets:                                     3
                             - Shells:                                        15
                             - Primitive Cartesian functions:                 21
                             - Cartesian basis functions:                     30
                             - Spherical basis functions:                     29

  Maximum angular momentum of- Orbital basis functions:                        2
                             - Local part of the GTH pseudopotential:          2
                             - Non-local part of the GTH pseudopotential:      0


 SCF PARAMETERS         Density guess:                                   RESTART
                        --------------------------------------------------------
                        max_scf:                                              50
                        max_scf_history:                                       0
                        max_diis:                                              4
                        --------------------------------------------------------
                        eps_scf:                                        1.00E-04
                        eps_scf_history:                                0.00E+00
                        eps_diis:                                       1.00E-01
                        eps_eigval:                                     1.00E-05
                        --------------------------------------------------------
                        level_shift [a.u.]:                                 0.00
                        --------------------------------------------------------
                        Outer loop SCF in use 
                        No variables optimised in outer loop
                        eps_scf                                         1.00E-04
                        max_scf                                              500
                        No outer loop optimization
                        step_size                                       5.00E-01

 PW_GRID| Information for grid number                                          1
 PW_GRID| Grid distributed over                                    24 processors
 PW_GRID| Real space group dimensions                                    24    1
 PW_GRID| the grid is blocked:                                                NO
 PW_GRID| Cutoff [a.u.]                                                    200.0
 PW_GRID| spherical cutoff:                                                   NO
 PW_GRID|   Bounds   1            -96      95                Points:         192
 PW_GRID|   Bounds   2            -96      95                Points:         192
 PW_GRID|   Bounds   3            -96      95                Points:         192
 PW_GRID| Volume element (a.u.^3)  0.3218E-02     Volume (a.u.^3)     22775.6292
 PW_GRID| Grid span                                                    FULLSPACE
 PW_GRID|   Distribution                         Average         Max         Min
 PW_GRID|   G-Vectors                           294912.0      294912      294912
 PW_GRID|   G-Rays                                1536.0        1536        1536
 PW_GRID|   Real Space Points                   294912.0      294912      294912

 PW_GRID| Information for grid number                                          2
 PW_GRID| Number of the reference grid                                         1
 PW_GRID| Grid distributed over                                    24 processors
 PW_GRID| Real space group dimensions                                    24    1
 PW_GRID| the grid is blocked:                                                NO
 PW_GRID| Cutoff [a.u.]                                                     66.7
 PW_GRID| spherical cutoff:                                                   NO
 PW_GRID|   Bounds   1            -54      53                Points:         108
 PW_GRID|   Bounds   2            -54      53                Points:         108
 PW_GRID|   Bounds   3            -54      53                Points:         108
 PW_GRID| Volume element (a.u.^3)  0.1808E-01     Volume (a.u.^3)     22775.6292
 PW_GRID| Grid span                                                    FULLSPACE
 PW_GRID|   Distribution                         Average         Max         Min
 PW_GRID|   G-Vectors                            52488.0       52704       52380
 PW_GRID|   G-Rays                                 486.0         488         485
 PW_GRID|   Real Space Points                    52488.0       58320       46656

 PW_GRID| Information for grid number                                          3
 PW_GRID| Number of the reference grid                                         1
 PW_GRID| Grid distributed over                                    24 processors
 PW_GRID| Real space group dimensions                                    24    1
 PW_GRID| the grid is blocked:                                                NO
 PW_GRID| Cutoff [a.u.]                                                     22.2
 PW_GRID| spherical cutoff:                                                   NO
 PW_GRID|   Bounds   1            -32      31                Points:          64
 PW_GRID|   Bounds   2            -32      31                Points:          64
 PW_GRID|   Bounds   3            -32      31                Points:          64
 PW_GRID| Volume element (a.u.^3)  0.8688E-01     Volume (a.u.^3)     22775.6292
 PW_GRID| Grid span                                                    FULLSPACE
 PW_GRID|   Distribution                         Average         Max         Min
 PW_GRID|   G-Vectors                            10922.7       10944       10880
 PW_GRID|   G-Rays                                 170.7         171         170
 PW_GRID|   Real Space Points                    10922.7       12288        8192

 PW_GRID| Information for grid number                                          4
 PW_GRID| Number of the reference grid                                         1
 PW_GRID| Grid distributed over                                    24 processors
 PW_GRID| Real space group dimensions                                    24    1
 PW_GRID| the grid is blocked:                                                NO
 PW_GRID| Cutoff [a.u.]                                                      7.4
 PW_GRID| spherical cutoff:                                                   NO
 PW_GRID|   Bounds   1            -18      17                Points:          36
 PW_GRID|   Bounds   2            -18      17                Points:          36
 PW_GRID|   Bounds   3            -18      17                Points:          36
 PW_GRID| Volume element (a.u.^3)  0.4882         Volume (a.u.^3)     22775.6292
 PW_GRID| Grid span                                                    FULLSPACE
 PW_GRID|   Distribution                         Average         Max         Min
 PW_GRID|   G-Vectors                             1944.0        2016        1908
 PW_GRID|   G-Rays                                  54.0          56          53
 PW_GRID|   Real Space Points                     1944.0        2592        1296

 POISSON| Solver                                                         WAVELET
 POISSON| Wavelet| Scaling function                                           40
 POISSON| Periodicity                                                       NONE

 RS_GRID| Information for grid number                                          1
 RS_GRID|   Bounds   1            -96      95                Points:         192
 RS_GRID|   Bounds   2            -96      95                Points:         192
 RS_GRID|   Bounds   3            -96      95                Points:         192
 RS_GRID| Real space distribution over                                  4 groups
 RS_GRID| Real space distribution along direction                              2
 RS_GRID| Border size                                                         21
 RS_GRID| Real space distribution over                                  6 groups
 RS_GRID| Real space distribution along direction                              3
 RS_GRID| Border size                                                         21
 RS_GRID|   Distribution                         Average         Max         Min
 RS_GRID|   Planes                                  90.0          90          90
 RS_GRID|   Distribution                         Average         Max         Min
 RS_GRID|   Planes                                  74.0          74          74

 RS_GRID| Information for grid number                                          2
 RS_GRID|   Bounds   1            -54      53                Points:         108
 RS_GRID|   Bounds   2            -54      53                Points:         108
 RS_GRID|   Bounds   3            -54      53                Points:         108
 RS_GRID| Real space distribution over                                  4 groups
 RS_GRID| Real space distribution along direction                              2
 RS_GRID| Border size                                                         22
 RS_GRID| Real space distribution over                                  6 groups
 RS_GRID| Real space distribution along direction                              3
 RS_GRID| Border size                                                         22
 RS_GRID|   Distribution                         Average         Max         Min
 RS_GRID|   Planes                                  71.0          71          71
 RS_GRID|   Distribution                         Average         Max         Min
 RS_GRID|   Planes                                  62.0          62          62

 RS_GRID| Information for grid number                                          3
 RS_GRID|   Bounds   1            -32      31                Points:          64
 RS_GRID|   Bounds   2            -32      31                Points:          64
 RS_GRID|   Bounds   3            -32      31                Points:          64
 RS_GRID| Real space fully replicated
 RS_GRID| Group size                                                           1

 RS_GRID| Information for grid number                                          4
 RS_GRID|   Bounds   1            -18      17                Points:          36
 RS_GRID|   Bounds   2            -18      17                Points:          36
 RS_GRID|   Bounds   3            -18      17                Points:          36
 RS_GRID| Real space fully replicated
 RS_GRID| Group size                                                           1

 BFGS| Use rational function optimization for step estimation:                NO
 BFGS| Use model Hessian for initial guess:                                  YES
 BFGS| Restart Hessian:                                                       NO
 BFGS| Trust radius:                                                       0.472

 *******************************************************************************
 ***                     STARTING GEOMETRY OPTIMIZATION                      ***
 ***                                   BFGS                                  ***
 *******************************************************************************

 Number of electrons:                                                          8
 Number of occupied orbitals:                                                  4
 Number of molecular orbitals:                                                 4

 Number of orbital functions:                                                 29
 Number of independent orbital functions:                                     29

 Extrapolation method: initial_guess

 *** WARNING in qs_initial_guess.F:309 :: User requested to restart the    ***
 *** wavefunction from the file named: h2o-RESTART.wfn. This file does not ***
 *** exist. Please check the existence of the file or change properly the  ***
 *** value of the keyword WFN_RESTART_FILE_NAME. Calculation continues     ***
 *** using ATOMIC GUESS.                                                   ***



 SCF WAVEFUNCTION OPTIMIZATION

  ----------------------------------- OT ---------------------------------------
  Minimizer      : DIIS                : direct inversion
                                         in the iterative subspace
                                         using   7 DIIS vectors
                                         safer DIIS on
  Preconditioner : FULL_SINGLE_INVERSE : inversion of 
                                         H + eS - 2*(Sc)(c^T*H*c+const)(Sc)^T
  Precond_solver : DEFAULT
  stepsize       :    0.08000000                  energy_gap     :    0.08000000
  eps_taylor     :   0.10000E-15                  max_taylor     :             4
  ----------------------------------- OT ---------------------------------------

  Step     Update method      Time    Convergence         Total energy    Change
  ------------------------------------------------------------------------------
     1 OT DIIS     0.80E-01    1.6     0.38350081       -16.1727918504 -1.62E+01
     2 OT DIIS     0.80E-01    1.1     0.27774104       -16.4349623050 -2.62E-01
     3 OT DIIS     0.80E-01    1.1     0.11828706       -16.7485149427 -3.14E-01
     4 OT DIIS     0.80E-01    1.1     0.09548171       -16.8499425807 -1.01E-01
     5 OT DIIS     0.80E-01    1.1     0.07420735       -16.9029810092 -5.30E-02
     6 OT DIIS     0.80E-01    1.1     0.05884162       -16.9295352550 -2.66E-02
     7 OT DIIS     0.80E-01    1.1     0.09788776       -16.9644270164 -3.49E-02
     8 OT DIIS     0.80E-01    1.1     0.04265254       -16.9914137120 -2.70E-02
     9 OT DIIS     0.80E-01    1.1     0.03658585       -16.9898628041  1.55E-03
    10 OT DIIS     0.80E-01    1.1     0.03690443       -16.9926664686 -2.80E-03
    11 OT DIIS     0.80E-01    1.1     0.00486540       -17.0038954430 -1.12E-02
    12 OT DIIS     0.80E-01    1.1     0.00386431       -17.0040485557 -1.53E-04
    13 OT DIIS     0.80E-01    1.1     0.00318111       -17.0042731287 -2.25E-04
    14 OT DIIS     0.80E-01    1.1     0.00173557       -17.0043553680 -8.22E-05
    15 OT DIIS     0.80E-01    1.1     0.00099130       -17.0044440049 -8.86E-05
    16 OT DIIS     0.80E-01    1.1     0.00074261       -17.0044606346 -1.66E-05
    17 OT DIIS     0.80E-01    1.1     0.00043746       -17.0044832651 -2.26E-05
    18 OT DIIS     0.80E-01    1.1     0.00026141       -17.0044866359 -3.37E-06
    19 OT DIIS     0.80E-01    1.1     0.00011020       -17.0044886976 -2.06E-06
    20 OT DIIS     0.80E-01    1.1     0.00006620       -17.0044888924 -1.95E-07

  *** SCF run converged in    20 steps ***


  Electronic density on regular grids:         -7.7278378242        0.2721621758
  Core density on regular grids:                8.0000000000       -0.0000000000
  Hard and soft densities (Lebedev):          -21.4840058040      -21.2118434361
  Total Rho_soft + Rho1_hard - Rho1_soft       -8.0000001920
  Total charge density (r-space):              -0.0000001920
  Total Rho_soft + Rho0_soft (g-space):        -0.0000002182

  Overlap energy of the core charge distribution:               0.00000000000000
  Self energy of the core charge distribution:                -44.34715499673765
  Core Hamiltonian energy:                                     12.10973665685495
  Hartree energy:                                              20.96082145544293
  Exchange-correlation energy:                                 -3.64194122094452

  GAPW| Exc from hard and soft atomic rho1:                    -0.27089402413359
  GAPW| local Eh = 1 center integrals:                         -1.81505676284774

  Total energy:                                               -17.00448889236562

  outer SCF iter =    1 RMS gradient =   0.66E-04 energy =        -17.0044888924
  outer SCF loop converged in   1 iterations or   20 steps

  
  Eigenvalues of the occupied subspace spin            1
 ---------------------------------------------
      -0.80412203     -0.38048951     -0.26469403     -0.23032780
 Fermi Energy [eV] :   -6.267538
  
  Lowest Eigenvalues of the unoccupied subspace spin            1
 -----------------------------------------------------
 OT| Eigensolver reached convergence in 23 iterations
      -0.17423142
  
 HOMO - LUMO gap [eV] :    1.526460

 ENERGY| Total FORCE_EVAL ( QS ) energy [a.u.]:              -17.004488965771795

 --------  Informations at step =     0 ------------
  Optimization Method        =                 BFGS
  Total Energy               =       -17.0044889658
  Used time                  =               24.337
 ---------------------------------------------------

 --------------------------
 OPTIMIZATION STEP:      1
 --------------------------

  Step is scaled; Scaling factor =  0.56846

 Number of electrons:                                                          8
 Number of occupied orbitals:                                                  4
 Number of molecular orbitals:                                                 4

 Number of orbital functions:                                                 29
 Number of independent orbital functions:                                     29

 Extrapolation method: ASPC


 SCF WAVEFUNCTION OPTIMIZATION

  ----------------------------------- OT ---------------------------------------
  Minimizer      : DIIS                : direct inversion
                                         in the iterative subspace
                                         using   7 DIIS vectors
                                         safer DIIS on
  Preconditioner : FULL_SINGLE_INVERSE : inversion of 
                                         H + eS - 2*(Sc)(c^T*H*c+const)(Sc)^T
  Precond_solver : DEFAULT
  stepsize       :    0.08000000                  energy_gap     :    0.08000000
  eps_taylor     :   0.10000E-15                  max_taylor     :             4
  ----------------------------------- OT ---------------------------------------

  Step     Update method      Time    Convergence         Total energy    Change
  ------------------------------------------------------------------------------
     1 OT DIIS     0.80E-01    0.9     0.03549786       -17.0915220277 -1.71E+01
     2 OT DIIS     0.80E-01    1.1     0.01918722       -17.0977864287 -6.26E-03
     3 OT DIIS     0.80E-01    1.1     0.01124041       -17.0994520881 -1.67E-03
     4 OT DIIS     0.80E-01    1.1     0.00495466       -17.1005393700 -1.09E-03
     5 OT DIIS     0.80E-01    1.1     0.00166439       -17.1008535043 -3.14E-04
     6 OT DIIS     0.80E-01    1.1     0.00035416       -17.1008901800 -3.67E-05
     7 OT DIIS     0.80E-01    1.1     0.00015745       -17.1008916293 -1.45E-06
     8 OT DIIS     0.80E-01    1.1     0.00004444       -17.1008917799 -1.51E-07

  *** SCF run converged in     8 steps ***


  Electronic density on regular grids:         -7.7036896928        0.2963103072
  Core density on regular grids:                8.0000000000       -0.0000000000
  Hard and soft densities (Lebedev):          -36.1414377118      -35.8451272784
  Total Rho_soft + Rho1_hard - Rho1_soft       -8.0000001262
  Total charge density (r-space):              -0.0000001262
  Total Rho_soft + Rho0_soft (g-space):        -0.0000001524

  Overlap energy of the core charge distribution:               0.00000000000006
  Self energy of the core charge distribution:                -44.34715499673765
  Core Hamiltonian energy:                                     12.27001000875113
  Hartree energy:                                              20.73098083119945
  Exchange-correlation energy:                                 -3.70532371761718

  GAPW| Exc from hard and soft atomic rho1:                    -0.29393181806470
  GAPW| local Eh = 1 center integrals:                         -1.75547208739764

  Total energy:                                               -17.10089177986654

  outer SCF iter =    1 RMS gradient =   0.44E-04 energy =        -17.1008917799
  outer SCF loop converged in   1 iterations or    8 steps

  
  Eigenvalues of the occupied subspace spin            1
 ---------------------------------------------
      -0.82745386     -0.41953104     -0.27504869     -0.23570437
 Fermi Energy [eV] :   -6.413842
  
  Lowest Eigenvalues of the unoccupied subspace spin            1
 -----------------------------------------------------
 OT| Eigensolver reached convergence in 23 iterations
      -0.11222107
  
 HOMO - LUMO gap [eV] :    3.360151

 ENERGY| Total FORCE_EVAL ( QS ) energy [a.u.]:              -17.100891804938605

 --------  Informations at step =     1 ------------
  Optimization Method        =                 BFGS
  Total Energy               =       -17.1008918049
  Real energy change         =        -0.0964028392
  Predicted change in energy =        -0.0636332276
  Scaling factor             =         0.5684560494
  Step size                  =         0.4724315332
  Trust radius               =         0.4724315332
  Decrease in energy         =                  YES
  Used time                  =               10.568

  Convergence check :
  Max. step size             =         0.4724315332
  Conv. limit for step size  =         0.0100000000
  Convergence in step size   =                   NO
  RMS step size              =         0.2140941964
  Conv. limit for RMS step   =         0.0030000000
  Convergence in RMS step    =                   NO
  Max. gradient              =         0.1137294529
  Conv. limit for gradients  =         0.0010000000
  Conv. for gradients        =                   NO
  RMS gradient               =         0.0546252731
  Conv. limit for RMS grad.  =         0.0003000000
  Conv. for gradients        =                   NO
 ---------------------------------------------------

 --------------------------
 OPTIMIZATION STEP:      2
 --------------------------

  Step is scaled; Scaling factor =  0.00043

 Number of electrons:                                                          8
 Number of occupied orbitals:                                                  4
 Number of molecular orbitals:                                                 4

 Number of orbital functions:                                                 29
 Number of independent orbital functions:                                     29

 Extrapolation method: ASPC


 SCF WAVEFUNCTION OPTIMIZATION

  ----------------------------------- OT ---------------------------------------
  Minimizer      : DIIS                : direct inversion
                                         in the iterative subspace
                                         using   7 DIIS vectors
                                         safer DIIS on
  Preconditioner : FULL_SINGLE_INVERSE : inversion of 
                                         H + eS - 2*(Sc)(c^T*H*c+const)(Sc)^T
  Precond_solver : DEFAULT
  stepsize       :    0.08000000                  energy_gap     :    0.08000000
  eps_taylor     :   0.10000E-15                  max_taylor     :             4
  ----------------------------------- OT ---------------------------------------

  Step     Update method      Time    Convergence         Total energy    Change
  ------------------------------------------------------------------------------
     1 OT DIIS     0.80E-01    0.9     0.03207820       -17.1750770288 -1.72E+01
     2 OT DIIS     0.80E-01    1.1     0.01737332       -17.1820966072 -7.02E-03
     3 OT DIIS     0.80E-01    1.1     0.00857361       -17.1851480173 -3.05E-03
     4 OT DIIS     0.80E-01    1.1     0.00362369       -17.1860823259 -9.34E-04
     5 OT DIIS     0.80E-01    1.1     0.00120759       -17.1862728364 -1.91E-04
     6 OT DIIS     0.80E-01    1.1     0.00039895       -17.1862937942 -2.10E-05
     7 OT DIIS     0.80E-01    1.1     0.00012993       -17.1862962794 -2.49E-06
     8 OT DIIS     0.80E-01    1.1     0.00006798       -17.1862964295 -1.50E-07

  *** SCF run converged in     8 steps ***


  Electronic density on regular grids:         -7.6328102457        0.3671897543
  Core density on regular grids:                8.0000000000       -0.0000000000
  Hard and soft densities (Lebedev):          -51.3467435897      -50.9795541557
  Total Rho_soft + Rho1_hard - Rho1_soft       -7.9999996797
  Total charge density (r-space):               0.0000003203
  Total Rho_soft + Rho0_soft (g-space):         0.0000002960

  Overlap energy of the core charge distribution:               0.00000004215072
  Self energy of the core charge distribution:                -44.34715499673765
  Core Hamiltonian energy:                                     12.81511440567252
  Hartree energy:                                              20.11204552967564
  Exchange-correlation energy:                                 -3.81801783326173

  GAPW| Exc from hard and soft atomic rho1:                    -0.36443657611791
  GAPW| local Eh = 1 center integrals:                         -1.58384700087729

  Total energy:                                               -17.18629642949571

  outer SCF iter =    1 RMS gradient =   0.68E-04 energy =        -17.1862964295
  outer SCF loop converged in   1 iterations or    8 steps

  
  Eigenvalues of the occupied subspace spin            1
 ---------------------------------------------
      -0.89378414     -0.51269464     -0.27401799     -0.25181796
 Fermi Energy [eV] :   -6.852315
  
  Lowest Eigenvalues of the unoccupied subspace spin            1
 -----------------------------------------------------
 OT| Eigensolver reached convergence in 27 iterations
      -0.02252060
  
 HOMO - LUMO gap [eV] :    6.239498

 ENERGY| Total FORCE_EVAL ( QS ) energy [a.u.]:              -17.186296494637467

 --------  Informations at step =     2 ------------
  Optimization Method        =                 BFGS
  Total Energy               =       -17.1862964946
  Real energy change         =        -0.0854046897
  Predicted change in energy =        -0.1218725023
  Scaling factor             =         0.0004295563
  Step size                  =         0.4724315332
  Trust radius               =         0.4724315332
  Decrease in energy         =                  YES
  Used time                  =               10.644

  Convergence check :
  Max. step size             =         0.4724315332
  Conv. limit for step size  =         0.0100000000
  Convergence in step size   =                   NO
  RMS step size              =         0.2288759969
  Conv. limit for RMS step   =         0.0030000000
  Convergence in RMS step    =                   NO
  Max. gradient              =         0.0894092939
  Conv. limit for gradients  =         0.0010000000
  Conv. for gradients        =                   NO
  RMS gradient               =         0.0443380767
  Conv. limit for RMS grad.  =         0.0003000000
  Conv. for gradients        =                   NO
 ---------------------------------------------------

 --------------------------
 OPTIMIZATION STEP:      3
 --------------------------

  Step is scaled; Scaling factor =  0.42048

 Number of electrons:                                                          8
 Number of occupied orbitals:                                                  4
 Number of molecular orbitals:                                                 4

 Number of orbital functions:                                                 29
 Number of independent orbital functions:                                     29

 Extrapolation method: ASPC


 SCF WAVEFUNCTION OPTIMIZATION

  ----------------------------------- OT ---------------------------------------
  Minimizer      : DIIS                : direct inversion
                                         in the iterative subspace
                                         using   7 DIIS vectors
                                         safer DIIS on
  Preconditioner : FULL_SINGLE_INVERSE : inversion of 
                                         H + eS - 2*(Sc)(c^T*H*c+const)(Sc)^T
  Precond_solver : DEFAULT
  stepsize       :    0.08000000                  energy_gap     :    0.08000000
  eps_taylor     :   0.10000E-15                  max_taylor     :             4
  ----------------------------------- OT ---------------------------------------

  Step     Update method      Time    Convergence         Total energy    Change
  ------------------------------------------------------------------------------
     1 OT DIIS     0.80E-01    1.0     0.08811531       -17.1170363094 -1.71E+01
     2 OT DIIS     0.80E-01    1.1     0.05513450       -17.1749076493 -5.79E-02
     3 OT DIIS     0.80E-01    1.1     0.01624927       -17.2121815254 -3.73E-02
     4 OT DIIS     0.80E-01    1.1     0.00569505       -17.2154080664 -3.23E-03
     5 OT DIIS     0.80E-01    1.1     0.00136050       -17.2157793309 -3.71E-04
     6 OT DIIS     0.80E-01    1.1     0.00062305       -17.2157962098 -1.69E-05
     7 OT DIIS     0.80E-01    1.1     0.00016907       -17.2157987739 -2.56E-06
     8 OT DIIS     0.80E-01    1.1     0.00004429       -17.2157991399 -3.66E-07

  *** SCF run converged in     8 steps ***


  Electronic density on regular grids:         -7.6394218103        0.3605781897
  Core density on regular grids:                8.0000000000       -0.0000000000
  Hard and soft densities (Lebedev):          -53.7495262740      -53.3889480721
  Total Rho_soft + Rho1_hard - Rho1_soft       -8.0000000121
  Total charge density (r-space):              -0.0000000121
  Total Rho_soft + Rho0_soft (g-space):        -0.0000000381

  Overlap energy of the core charge distribution:               0.00000029518273
  Self energy of the core charge distribution:                -44.34715499673765
  Core Hamiltonian energy:                                     13.02751363848563
  Hartree energy:                                              19.97008082546144
  Exchange-correlation energy:                                 -3.90093053802845

  GAPW| Exc from hard and soft atomic rho1:                    -0.35836604249745
  GAPW| local Eh = 1 center integrals:                         -1.60694232176814

  Total energy:                                               -17.21579913990190

  outer SCF iter =    1 RMS gradient =   0.44E-04 energy =        -17.2157991399
  outer SCF loop converged in   1 iterations or    8 steps

  
  Eigenvalues of the occupied subspace spin            1
 ---------------------------------------------
      -0.94688506     -0.49519156     -0.34225009     -0.26718571
 Fermi Energy [eV] :   -7.270493
  
  Lowest Eigenvalues of the unoccupied subspace spin            1
 -----------------------------------------------------
 OT| Eigensolver reached convergence in 41 iterations
       0.01462988
  
 HOMO - LUMO gap [eV] :    7.668592

 ENERGY| Total FORCE_EVAL ( QS ) energy [a.u.]:              -17.215799164576620

 --------  Informations at step =     3 ------------
  Optimization Method        =                 BFGS
  Total Energy               =       -17.2157991646
  Real energy change         =        -0.0295026699
  Predicted change in energy =        -0.0569631043
  Scaling factor             =         0.4204826473
  Step size                  =         0.4724315332
  Trust radius               =         0.4724315332
  Decrease in energy         =                  YES
  Used time                  =               10.810

  Convergence check :
  Max. step size             =         0.4724315332
  Conv. limit for step size  =         0.0100000000
  Convergence in step size   =                   NO
  RMS step size              =         0.2388195264
  Conv. limit for RMS step   =         0.0030000000
  Convergence in RMS step    =                   NO
  Max. gradient              =         0.0720502073
  Conv. limit for gradients  =         0.0010000000
  Conv. for gradients        =                   NO
  RMS gradient               =         0.0412752066
  Conv. limit for RMS grad.  =         0.0003000000
  Conv. for gradients        =                   NO
 ---------------------------------------------------

 --------------------------
 OPTIMIZATION STEP:      4
 --------------------------

  Step is scaled; Scaling factor =  0.71900

 Number of electrons:                                                          8
 Number of occupied orbitals:                                                  4
 Number of molecular orbitals:                                                 4

 Number of orbital functions:                                                 29
 Number of independent orbital functions:                                     29

 Extrapolation method: ASPC


 SCF WAVEFUNCTION OPTIMIZATION

  ----------------------------------- OT ---------------------------------------
  Minimizer      : DIIS                : direct inversion
                                         in the iterative subspace
                                         using   7 DIIS vectors
                                         safer DIIS on
  Preconditioner : FULL_SINGLE_INVERSE : inversion of 
                                         H + eS - 2*(Sc)(c^T*H*c+const)(Sc)^T
  Precond_solver : DEFAULT
  stepsize       :    0.08000000                  energy_gap     :    0.08000000
  eps_taylor     :   0.10000E-15                  max_taylor     :             4
  ----------------------------------- OT ---------------------------------------

  Step     Update method      Time    Convergence         Total energy    Change
  ------------------------------------------------------------------------------
     1 OT DIIS     0.80E-01    1.0     0.08778291       -17.0843597738 -1.71E+01
     2 OT DIIS     0.80E-01    1.1     0.04569256       -17.1362226818 -5.19E-02
     3 OT DIIS     0.80E-01    1.1     0.02147428       -17.1571830166 -2.10E-02
     4 OT DIIS     0.80E-01    1.1     0.00477527       -17.1633020841 -6.12E-03
     5 OT DIIS     0.80E-01    1.1     0.00114228       -17.1635670794 -2.65E-04
     6 OT DIIS     0.80E-01    1.1     0.00056388       -17.1635771379 -1.01E-05
     7 OT DIIS     0.80E-01    1.1     0.00017782       -17.1635803008 -3.16E-06
     8 OT DIIS     0.80E-01    1.1     0.00006137       -17.1635806137 -3.13E-07

  *** SCF run converged in     8 steps ***


  Electronic density on regular grids:         -7.7092279802        0.2907720198
  Core density on regular grids:                8.0000000000       -0.0000000000
  Hard and soft densities (Lebedev):          -53.6535738150      -53.3628018653
  Total Rho_soft + Rho1_hard - Rho1_soft       -7.9999999299
  Total charge density (r-space):               0.0000000701
  Total Rho_soft + Rho0_soft (g-space):         0.0000000436

  Overlap energy of the core charge distribution:               0.00000000006387
  Self energy of the core charge distribution:                -44.34715499673765
  Core Hamiltonian energy:                                     12.43984799805812
  Hartree energy:                                              20.59457787538196
  Exchange-correlation energy:                                 -3.78920182166980

  GAPW| Exc from hard and soft atomic rho1:                    -0.28811187108870
  GAPW| local Eh = 1 center integrals:                         -1.77353779773626

  Total energy:                                               -17.16358061372845

  outer SCF iter =    1 RMS gradient =   0.61E-04 energy =        -17.1635806137
  outer SCF loop converged in   1 iterations or    8 steps

  
  Eigenvalues of the occupied subspace spin            1
 ---------------------------------------------
      -0.88640118     -0.39693983     -0.37050913     -0.25872407
 Fermi Energy [eV] :   -7.040240
  
  Lowest Eigenvalues of the unoccupied subspace spin            1
 -----------------------------------------------------
 OT| Eigensolver reached convergence in 45 iterations
      -0.06128772
  
 HOMO - LUMO gap [eV] :    5.372516

 ENERGY| Total FORCE_EVAL ( QS ) energy [a.u.]:              -17.163580648717808

 --------  Informations at step =     4 ------------
  Optimization Method        =                 BFGS
  Total Energy               =       -17.1635806487
  Real energy change         =         0.0522185159
  Predicted change in energy =        -0.0264169398
  Scaling factor             =         0.7190001861
  Step size                  =         0.4724315332
  Trust radius               =         0.4724315332
  Decrease in energy         =                   NO
  Used time                  =               10.840

  Convergence check :
  Max. step size             =         0.4724315332
  Conv. limit for step size  =         0.0100000000
  Convergence in step size   =                   NO
  RMS step size              =         0.2078988235
  Conv. limit for RMS step   =         0.0030000000
  Convergence in RMS step    =                   NO
  Max. gradient              =         0.1642192116
  Conv. limit for gradients  =         0.0010000000
  Conv. for gradients        =                   NO
  RMS gradient               =         0.0678279050
  Conv. limit for RMS grad.  =         0.0003000000
  Conv. for gradients        =                   NO
 ---------------------------------------------------

 --------------------------
 OPTIMIZATION STEP:      5
 --------------------------

 Number of electrons:                                                          8
 Number of occupied orbitals:                                                  4
 Number of molecular orbitals:                                                 4

 Number of orbital functions:                                                 29
 Number of independent orbital functions:                                     29

 Extrapolation method: ASPC


 SCF WAVEFUNCTION OPTIMIZATION

  ----------------------------------- OT ---------------------------------------
  Minimizer      : DIIS                : direct inversion
                                         in the iterative subspace
                                         using   7 DIIS vectors
                                         safer DIIS on
  Preconditioner : FULL_SINGLE_INVERSE : inversion of 
                                         H + eS - 2*(Sc)(c^T*H*c+const)(Sc)^T
  Precond_solver : DEFAULT
  stepsize       :    0.08000000                  energy_gap     :    0.08000000
  eps_taylor     :   0.10000E-15                  max_taylor     :             4
  ----------------------------------- OT ---------------------------------------

  Step     Update method      Time    Convergence         Total energy    Change
  ------------------------------------------------------------------------------
     1 OT DIIS     0.80E-01    1.0     0.16500399       -16.9423369029 -1.69E+01
     2 OT DIIS     0.80E-01    1.1     0.08625500       -17.1191317497 -1.77E-01
     3 OT DIIS     0.80E-01    1.1     0.04836514       -17.1864767257 -6.73E-02
     4 OT DIIS     0.80E-01    1.1     0.01074511       -17.2173396833 -3.09E-02
     5 OT DIIS     0.80E-01    1.1     0.00445642       -17.2186341176 -1.29E-03
     6 OT DIIS     0.80E-01    1.1     0.00152834       -17.2188678134 -2.34E-04
     7 OT DIIS     0.80E-01    1.1     0.00058598       -17.2189021018 -3.43E-05
     8 OT DIIS     0.80E-01    1.1     0.00025300       -17.2189069917 -4.89E-06
     9 OT DIIS     0.80E-01    1.1     0.00006220       -17.2189079948 -1.00E-06

  *** SCF run converged in     9 steps ***


  Electronic density on regular grids:         -7.6593192560        0.3406807440
  Core density on regular grids:                8.0000000000       -0.0000000000
  Hard and soft densities (Lebedev):          -56.5269760803      -56.1862957021
  Total Rho_soft + Rho1_hard - Rho1_soft       -7.9999996342
  Total charge density (r-space):               0.0000003658
  Total Rho_soft + Rho0_soft (g-space):         0.0000003393

  Overlap energy of the core charge distribution:               0.00000002567066
  Self energy of the core charge distribution:                -44.34715499673765
  Core Hamiltonian energy:                                     12.80807524500284
  Hartree energy:                                              20.17006817316182
  Exchange-correlation energy:                                 -3.85865025938472

  GAPW| Exc from hard and soft atomic rho1:                    -0.33774266278890
  GAPW| local Eh = 1 center integrals:                         -1.65350351970966

  Total energy:                                               -17.21890799478560

  outer SCF iter =    1 RMS gradient =   0.62E-04 energy =        -17.2189079948
  outer SCF loop converged in   1 iterations or    9 steps

  
  Eigenvalues of the occupied subspace spin            1
 ---------------------------------------------
      -0.91863614     -0.47079181     -0.33902783     -0.26150140
 Fermi Energy [eV] :   -7.115815
  
  Lowest Eigenvalues of the unoccupied subspace spin            1
 -----------------------------------------------------
 OT| Eigensolver reached convergence in 35 iterations
      -0.00161758
  
 HOMO - LUMO gap [eV] :    7.071798

 ENERGY| Total FORCE_EVAL ( QS ) energy [a.u.]:              -17.218908045464829

 --------  Informations at step =     5 ------------
  Optimization Method        =                 BFGS
  Total Energy               =       -17.2189080455
  Real energy change         =        -0.0553273967
  Predicted change in energy =        -0.0475212584
  Scaling factor             =         0.7190001861
  Step size                  =         0.4153174578
  Trust radius               =         0.4724315332
  Decrease in energy         =                  YES
  Used time                  =               11.795

  Convergence check :
  Max. step size             =         0.4153174578
  Conv. limit for step size  =         0.0100000000
  Convergence in step size   =                   NO
  RMS step size              =         0.1978963063
  Conv. limit for RMS step   =         0.0030000000
  Convergence in RMS step    =                   NO
  Max. gradient              =         0.0382967544
  Conv. limit for gradients  =         0.0010000000
  Conv. for gradients        =                   NO
  RMS gradient               =         0.0210709914
  Conv. limit for RMS grad.  =         0.0003000000
  Conv. for gradients        =                   NO
 ---------------------------------------------------

 --------------------------
 OPTIMIZATION STEP:      6
 --------------------------

 Number of electrons:                                                          8
 Number of occupied orbitals:                                                  4
 Number of molecular orbitals:                                                 4

 Number of orbital functions:                                                 29
 Number of independent orbital functions:                                     29

 Extrapolation method: ASPC


 SCF WAVEFUNCTION OPTIMIZATION

  ----------------------------------- OT ---------------------------------------
  Minimizer      : DIIS                : direct inversion
                                         in the iterative subspace
                                         using   7 DIIS vectors
                                         safer DIIS on
  Preconditioner : FULL_SINGLE_INVERSE : inversion of 
                                         H + eS - 2*(Sc)(c^T*H*c+const)(Sc)^T
  Precond_solver : DEFAULT
  stepsize       :    0.08000000                  energy_gap     :    0.08000000
  eps_taylor     :   0.10000E-15                  max_taylor     :             4
  ----------------------------------- OT ---------------------------------------

  Step     Update method      Time    Convergence         Total energy    Change
  ------------------------------------------------------------------------------
     1 OT DIIS     0.80E-01    1.0     0.14772713       -16.9663199972 -1.70E+01
     2 OT DIIS     0.80E-01    1.1     0.08776981       -17.1265539256 -1.60E-01
     3 OT DIIS     0.80E-01    1.1     0.02237193       -17.2141026372 -8.75E-02
     4 OT DIIS     0.80E-01    1.1     0.00925276       -17.2195972036 -5.49E-03
     5 OT DIIS     0.80E-01    1.1     0.00432011       -17.2205955585 -9.98E-04
     6 OT DIIS     0.80E-01    1.1     0.00131591       -17.2206918253 -9.63E-05
     7 OT DIIS     0.80E-01    1.1     0.00046869       -17.2207086376 -1.68E-05
     8 OT DIIS     0.80E-01    1.1     0.00015167       -17.2207107909 -2.15E-06
     9 OT DIIS     0.80E-01    1.1     0.00003523       -17.2207110228 -2.32E-07

  *** SCF run converged in     9 steps ***


  Electronic density on regular grids:         -7.6485826328        0.3514173672
  Core density on regular grids:                8.0000000000       -0.0000000000
  Hard and soft densities (Lebedev):          -55.3644808319      -55.0130638271
  Total Rho_soft + Rho1_hard - Rho1_soft       -7.9999996376
  Total charge density (r-space):               0.0000003624
  Total Rho_soft + Rho0_soft (g-space):         0.0000003349

  Overlap energy of the core charge distribution:               0.00000006155744
  Self energy of the core charge distribution:                -44.34715499673765
  Core Hamiltonian energy:                                     12.90759783772269
  Hartree energy:                                              20.07228022736170
  Exchange-correlation energy:                                 -3.87665881575120

  GAPW| Exc from hard and soft atomic rho1:                    -0.34872340906025
  GAPW| local Eh = 1 center integrals:                         -1.62805192791622

  Total energy:                                               -17.22071102282349

  outer SCF iter =    1 RMS gradient =   0.35E-04 energy =        -17.2207110228
  outer SCF loop converged in   1 iterations or    9 steps

  
  Eigenvalues of the occupied subspace spin            1
 ---------------------------------------------
      -0.92971563     -0.48680611     -0.33604180     -0.26372576
 Fermi Energy [eV] :   -7.176343
  
  Lowest Eigenvalues of the unoccupied subspace spin            1
 -----------------------------------------------------
 OT| Eigensolver reached convergence in 49 iterations
       0.00792060
  
 HOMO - LUMO gap [eV] :    7.391873

 ENERGY| Total FORCE_EVAL ( QS ) energy [a.u.]:              -17.220711033306429

 --------  Informations at step =     6 ------------
  Optimization Method        =                 BFGS
  Total Energy               =       -17.2207110333
  Real energy change         =        -0.0018029878
  Predicted change in energy =        -0.0033723772
  Scaling factor             =         0.7190001861
  Step size                  =         0.1001172230
  Trust radius               =         0.4724315332
  Decrease in energy         =                  YES
  Used time                  =               12.023

  Convergence check :
  Max. step size             =         0.1001172230
  Conv. limit for step size  =         0.0100000000
  Convergence in step size   =                   NO
  RMS step size              =         0.0446096392
  Conv. limit for RMS step   =         0.0030000000
  Convergence in RMS step    =                   NO
  Max. gradient              =         0.0268930955
  Conv. limit for gradients  =         0.0010000000
  Conv. for gradients        =                   NO
  RMS gradient               =         0.0131390404
  Conv. limit for RMS grad.  =         0.0003000000
  Conv. for gradients        =                   NO
 ---------------------------------------------------

 --------------------------
 OPTIMIZATION STEP:      7
 --------------------------

 Number of electrons:                                                          8
 Number of occupied orbitals:                                                  4
 Number of molecular orbitals:                                                 4

 Number of orbital functions:                                                 29
 Number of independent orbital functions:                                     29

 Extrapolation method: ASPC


 SCF WAVEFUNCTION OPTIMIZATION

  ----------------------------------- OT ---------------------------------------
  Minimizer      : DIIS                : direct inversion
                                         in the iterative subspace
                                         using   7 DIIS vectors
                                         safer DIIS on
  Preconditioner : FULL_SINGLE_INVERSE : inversion of 
                                         H + eS - 2*(Sc)(c^T*H*c+const)(Sc)^T
  Precond_solver : DEFAULT
  stepsize       :    0.08000000                  energy_gap     :    0.08000000
  eps_taylor     :   0.10000E-15                  max_taylor     :             4
  ----------------------------------- OT ---------------------------------------

  Step     Update method      Time    Convergence         Total energy    Change
  ------------------------------------------------------------------------------
     1 OT DIIS     0.80E-01    0.9     0.08552500       -17.1329790632 -1.71E+01
     2 OT DIIS     0.80E-01    1.1     0.05083946       -17.1844298741 -5.15E-02
     3 OT DIIS     0.80E-01    1.1     0.02578254       -17.2116698076 -2.72E-02
     4 OT DIIS     0.80E-01    1.1     0.00517540       -17.2210597763 -9.39E-03
     5 OT DIIS     0.80E-01    1.1     0.00176595       -17.2213592009 -2.99E-04
     6 OT DIIS     0.80E-01    1.1     0.00061324       -17.2213874133 -2.82E-05
     7 OT DIIS     0.80E-01    1.1     0.00020701       -17.2213926081 -5.19E-06
     8 OT DIIS     0.80E-01    1.1     0.00007431       -17.2213932272 -6.19E-07

  *** SCF run converged in     8 steps ***


  Electronic density on regular grids:         -7.6515411120        0.3484588880
  Core density on regular grids:                8.0000000000       -0.0000000000
  Hard and soft densities (Lebedev):          -56.0485064390      -55.7000479415
  Total Rho_soft + Rho1_hard - Rho1_soft       -7.9999996095
  Total charge density (r-space):               0.0000003905
  Total Rho_soft + Rho0_soft (g-space):         0.0000003648

  Overlap energy of the core charge distribution:               0.00000004584613
  Self energy of the core charge distribution:                -44.34715499673765
  Core Hamiltonian energy:                                     12.89257522730535
  Hartree energy:                                              20.09018563121447
  Exchange-correlation energy:                                 -3.87599706375563

  GAPW| Exc from hard and soft atomic rho1:                    -0.34571048547771
  GAPW| local Eh = 1 center integrals:                         -1.63529158564481

  Total energy:                                               -17.22139322724985

  outer SCF iter =    1 RMS gradient =   0.74E-04 energy =        -17.2213932272
  outer SCF loop converged in   1 iterations or    8 steps

  
  Eigenvalues of the occupied subspace spin            1
 ---------------------------------------------
      -0.92983696     -0.48049669     -0.34098442     -0.26391050
 Fermi Energy [eV] :   -7.181370
  
  Lowest Eigenvalues of the unoccupied subspace spin            1
 -----------------------------------------------------
 OT| Eigensolver reached convergence in 41 iterations
       0.00671651
  
 HOMO - LUMO gap [eV] :    7.364135

 ENERGY| Total FORCE_EVAL ( QS ) energy [a.u.]:              -17.221393293916847

 --------  Informations at step =     7 ------------
  Optimization Method        =                 BFGS
  Total Energy               =       -17.2213932939
  Real energy change         =        -0.0006822606
  Predicted change in energy =        -0.0008932687
  Scaling factor             =         0.7190001861
  Step size                  =         0.0438391094
  Trust radius               =         0.4724315332
  Decrease in energy         =                  YES
  Used time                  =               10.792

  Convergence check :
  Max. step size             =         0.0438391094
  Conv. limit for step size  =         0.0100000000
  Convergence in step size   =                   NO
  RMS step size              =         0.0220418734
  Conv. limit for RMS step   =         0.0030000000
  Convergence in RMS step    =                   NO
  Max. gradient              =         0.0082366688
  Conv. limit for gradients  =         0.0010000000
  Conv. for gradients        =                   NO
  RMS gradient               =         0.0040544251
  Conv. limit for RMS grad.  =         0.0003000000
  Conv. for gradients        =                   NO
 ---------------------------------------------------

 --------------------------
 OPTIMIZATION STEP:      8
 --------------------------

 Number of electrons:                                                          8
 Number of occupied orbitals:                                                  4
 Number of molecular orbitals:                                                 4

 Number of orbital functions:                                                 29
 Number of independent orbital functions:                                     29

 Extrapolation method: ASPC


 SCF WAVEFUNCTION OPTIMIZATION

  ----------------------------------- OT ---------------------------------------
  Minimizer      : DIIS                : direct inversion
                                         in the iterative subspace
                                         using   7 DIIS vectors
                                         safer DIIS on
  Preconditioner : FULL_SINGLE_INVERSE : inversion of 
                                         H + eS - 2*(Sc)(c^T*H*c+const)(Sc)^T
  Precond_solver : DEFAULT
  stepsize       :    0.08000000                  energy_gap     :    0.08000000
  eps_taylor     :   0.10000E-15                  max_taylor     :             4
  ----------------------------------- OT ---------------------------------------

  Step     Update method      Time    Convergence         Total energy    Change
  ------------------------------------------------------------------------------
     1 OT DIIS     0.80E-01    0.9     0.02646050       -17.2129258074 -1.72E+01
     2 OT DIIS     0.80E-01    1.1     0.01593300       -17.2180749545 -5.15E-03
     3 OT DIIS     0.80E-01    1.1     0.00453328       -17.2211405145 -3.07E-03
     4 OT DIIS     0.80E-01    1.1     0.00174402       -17.2213871777 -2.47E-04
     5 OT DIIS     0.80E-01    1.1     0.00047051       -17.2214243967 -3.72E-05
     6 OT DIIS     0.80E-01    1.1     0.00012645       -17.2214270183 -2.62E-06
     7 OT DIIS     0.80E-01    1.1     0.00003939       -17.2214272081 -1.90E-07

  *** SCF run converged in     7 steps ***


  Electronic density on regular grids:         -7.6535151386        0.3464848614
  Core density on regular grids:                8.0000000000       -0.0000000000
  Hard and soft densities (Lebedev):          -56.3399215418      -55.9934370821
  Total Rho_soft + Rho1_hard - Rho1_soft       -7.9999995984
  Total charge density (r-space):               0.0000004016
  Total Rho_soft + Rho0_soft (g-space):         0.0000003756

  Overlap energy of the core charge distribution:               0.00000003474877
  Self energy of the core charge distribution:                -44.34715499673765
  Core Hamiltonian energy:                                     12.87059543051221
  Hartree energy:                                              20.11031452160015
  Exchange-correlation energy:                                 -3.87162488170665

  GAPW| Exc from hard and soft atomic rho1:                    -0.34367333417842
  GAPW| local Eh = 1 center integrals:                         -1.63988398237249

  Total energy:                                               -17.22142720813408

  outer SCF iter =    1 RMS gradient =   0.39E-04 energy =        -17.2214272081
  outer SCF loop converged in   1 iterations or    7 steps

  
  Eigenvalues of the occupied subspace spin            1
 ---------------------------------------------
      -0.92679543     -0.47818496     -0.34037738     -0.26326189
 Fermi Energy [eV] :   -7.163720
  
  Lowest Eigenvalues of the unoccupied subspace spin            1
 -----------------------------------------------------
 OT| Eigensolver reached convergence in 39 iterations
       0.00509830
  
 HOMO - LUMO gap [eV] :    7.302452

 ENERGY| Total FORCE_EVAL ( QS ) energy [a.u.]:              -17.221427219074506

 --------  Informations at step =     8 ------------
  Optimization Method        =                 BFGS
  Total Energy               =       -17.2214272191
  Real energy change         =        -0.0000339252
  Predicted change in energy =        -0.0000954866
  Scaling factor             =         0.7190001861
  Step size                  =         0.0135714425
  Trust radius               =         0.4724315332
  Decrease in energy         =                  YES
  Used time                  =                9.681

  Convergence check :
  Max. step size             =         0.0135714425
  Conv. limit for step size  =         0.0100000000
  Convergence in step size   =                   NO
  RMS step size              =         0.0072947843
  Conv. limit for RMS step   =         0.0030000000
  Convergence in RMS step    =                   NO
  Max. gradient              =         0.0043836133
  Conv. limit for gradients  =         0.0010000000
  Conv. for gradients        =                   NO
  RMS gradient               =         0.0024152850
  Conv. limit for RMS grad.  =         0.0003000000
  Conv. for gradients        =                   NO
 ---------------------------------------------------

 --------------------------
 OPTIMIZATION STEP:      9
 --------------------------

 Number of electrons:                                                          8
 Number of occupied orbitals:                                                  4
 Number of molecular orbitals:                                                 4

 Number of orbital functions:                                                 29
 Number of independent orbital functions:                                     29

 Extrapolation method: ASPC


 SCF WAVEFUNCTION OPTIMIZATION

  ----------------------------------- OT ---------------------------------------
  Minimizer      : DIIS                : direct inversion
                                         in the iterative subspace
                                         using   7 DIIS vectors
                                         safer DIIS on
  Preconditioner : FULL_SINGLE_INVERSE : inversion of 
                                         H + eS - 2*(Sc)(c^T*H*c+const)(Sc)^T
  Precond_solver : DEFAULT
  stepsize       :    0.08000000                  energy_gap     :    0.08000000
  eps_taylor     :   0.10000E-15                  max_taylor     :             4
  ----------------------------------- OT ---------------------------------------

  Step     Update method      Time    Convergence         Total energy    Change
  ------------------------------------------------------------------------------
     1 OT DIIS     0.80E-01    0.9     0.01401530       -17.2191212244 -1.72E+01
     2 OT DIIS     0.80E-01    1.1     0.00833208       -17.2205609508 -1.44E-03
     3 OT DIIS     0.80E-01    1.1     0.00225539       -17.2213905023 -8.30E-04
     4 OT DIIS     0.80E-01    1.1     0.00082991       -17.2214504975 -6.00E-05
     5 OT DIIS     0.80E-01    1.1     0.00024771       -17.2214587831 -8.29E-06
     6 OT DIIS     0.80E-01    1.1     0.00006784       -17.2214595244 -7.41E-07

  *** SCF run converged in     6 steps ***


  Electronic density on regular grids:         -7.6522650663        0.3477349337
  Core density on regular grids:                8.0000000000       -0.0000000000
  Hard and soft densities (Lebedev):          -56.1615028425      -55.8137683055
  Total Rho_soft + Rho1_hard - Rho1_soft       -7.9999996033
  Total charge density (r-space):               0.0000003967
  Total Rho_soft + Rho0_soft (g-space):         0.0000003711

  Overlap energy of the core charge distribution:               0.00000004100039
  Self energy of the core charge distribution:                -44.34715499673765
  Core Hamiltonian energy:                                     12.88436605680142
  Hartree energy:                                              20.09764867653862
  Exchange-correlation energy:                                 -3.87437813159498

  GAPW| Exc from hard and soft atomic rho1:                    -0.34496212985518
  GAPW| local Eh = 1 center integrals:                         -1.63697904055574

  Total energy:                                               -17.22145952440312

  outer SCF iter =    1 RMS gradient =   0.68E-04 energy =        -17.2214595244
  outer SCF loop converged in   1 iterations or    6 steps

  
  Eigenvalues of the occupied subspace spin            1
 ---------------------------------------------
      -0.92870683     -0.47972628     -0.34071903     -0.26368065
 Fermi Energy [eV] :   -7.175115
  
  Lowest Eigenvalues of the unoccupied subspace spin            1
 -----------------------------------------------------
 OT| Eigensolver reached convergence in 39 iterations
       0.00616336
  
 HOMO - LUMO gap [eV] :    7.342829

 ENERGY| Total FORCE_EVAL ( QS ) energy [a.u.]:              -17.221459580504082

 --------  Informations at step =     9 ------------
  Optimization Method        =                 BFGS
  Total Energy               =       -17.2214595805
  Real energy change         =        -0.0000323614
  Predicted change in energy =        -0.0000340952
  Scaling factor             =         0.7190001861
  Step size                  =         0.0069898382
  Trust radius               =         0.4724315332
  Decrease in energy         =                  YES
  Used time                  =                8.642

  Convergence check :
  Max. step size             =         0.0069898382
  Conv. limit for step size  =         0.0100000000
  Convergence in step size   =                  YES
  RMS step size              =         0.0035081234
  Conv. limit for RMS step   =         0.0030000000
  Convergence in RMS step    =                   NO
  Max. gradient              =         0.0006425079
  Conv. limit for gradients  =         0.0010000000
  Conv. in gradients         =                  YES
  RMS gradient               =         0.0003263333
  Conv. limit for RMS grad.  =         0.0003000000
  Conv. for gradients        =                   NO
 ---------------------------------------------------

 --------------------------
 OPTIMIZATION STEP:     10
 --------------------------

 Number of electrons:                                                          8
 Number of occupied orbitals:                                                  4
 Number of molecular orbitals:                                                 4

 Number of orbital functions:                                                 29
 Number of independent orbital functions:                                     29

 Extrapolation method: ASPC


 SCF WAVEFUNCTION OPTIMIZATION

  ----------------------------------- OT ---------------------------------------
  Minimizer      : DIIS                : direct inversion
                                         in the iterative subspace
                                         using   7 DIIS vectors
                                         safer DIIS on
  Preconditioner : FULL_SINGLE_INVERSE : inversion of 
                                         H + eS - 2*(Sc)(c^T*H*c+const)(Sc)^T
  Precond_solver : DEFAULT
  stepsize       :    0.08000000                  energy_gap     :    0.08000000
  eps_taylor     :   0.10000E-15                  max_taylor     :             4
  ----------------------------------- OT ---------------------------------------

  Step     Update method      Time    Convergence         Total energy    Change
  ------------------------------------------------------------------------------
     1 OT DIIS     0.80E-01    0.9     0.00594946       -17.2210758658 -1.72E+01
     2 OT DIIS     0.80E-01    1.1     0.00330426       -17.2213215688 -2.46E-04
     3 OT DIIS     0.80E-01    1.1     0.00138710       -17.2214334390 -1.12E-04
     4 OT DIIS     0.80E-01    1.1     0.00045145       -17.2214573434 -2.39E-05
     5 OT DIIS     0.80E-01    1.1     0.00009374       -17.2214599044 -2.56E-06

  *** SCF run converged in     5 steps ***


  Electronic density on regular grids:         -7.6523511891        0.3476488109
  Core density on regular grids:                8.0000000000       -0.0000000000
  Hard and soft densities (Lebedev):          -56.1778537887      -55.8302053748
  Total Rho_soft + Rho1_hard - Rho1_soft       -7.9999996030
  Total charge density (r-space):               0.0000003970
  Total Rho_soft + Rho0_soft (g-space):         0.0000003713

  Overlap energy of the core charge distribution:               0.00000004059825
  Self energy of the core charge distribution:                -44.34715499673765
  Core Hamiltonian energy:                                     12.88343724253908
  Hartree energy:                                              20.09853501280015
  Exchange-correlation energy:                                 -3.87421344067305

  GAPW| Exc from hard and soft atomic rho1:                    -0.34487133189930
  GAPW| local Eh = 1 center integrals:                         -1.63719243106864

  Total energy:                                               -17.22145990444115

  outer SCF iter =    1 RMS gradient =   0.94E-04 energy =        -17.2214599044
  outer SCF loop converged in   1 iterations or    5 steps

  
  Eigenvalues of the occupied subspace spin            1
 ---------------------------------------------
      -0.92862499     -0.47958274     -0.34076106     -0.26366578
 Fermi Energy [eV] :   -7.174711
  
  Lowest Eigenvalues of the unoccupied subspace spin            1
 -----------------------------------------------------
 OT| Eigensolver reached convergence in 39 iterations
       0.00608790
  
 HOMO - LUMO gap [eV] :    7.340371

 ENERGY| Total FORCE_EVAL ( QS ) energy [a.u.]:              -17.221460011301488

 --------  Informations at step =    10 ------------
  Optimization Method        =                 BFGS
  Total Energy               =       -17.2214600113
  Real energy change         =        -0.0000004308
  Predicted change in energy =        -0.0000004980
  Scaling factor             =         0.7190001861
  Step size                  =         0.0010034884
  Trust radius               =         0.4724315332
  Decrease in energy         =                  YES
  Used time                  =                7.490

  Convergence check :
  Max. step size             =         0.0010034884
  Conv. limit for step size  =         0.0100000000
  Convergence in step size   =                  YES
  RMS step size              =         0.0004400336
  Conv. limit for RMS step   =         0.0030000000
  Convergence in RMS step    =                  YES
  Max. gradient              =         0.0000992329
  Conv. limit for gradients  =         0.0010000000
  Conv. in gradients         =                  YES
  RMS gradient               =         0.0000434560
  Conv. limit for RMS grad.  =         0.0003000000
  Conv. in RMS gradients     =                  YES
 ---------------------------------------------------

 *******************************************************************************
 ***                    GEOMETRY OPTIMIZATION COMPLETED                      ***
 *******************************************************************************

                    Reevaluating energy at the minimum

 Number of electrons:                                                          8
 Number of occupied orbitals:                                                  4
 Number of molecular orbitals:                                                 4

 Number of orbital functions:                                                 29
 Number of independent orbital functions:                                     29

 Extrapolation method: ASPC


 SCF WAVEFUNCTION OPTIMIZATION

  ----------------------------------- OT ---------------------------------------
  Minimizer      : DIIS                : direct inversion
                                         in the iterative subspace
                                         using   7 DIIS vectors
                                         safer DIIS on
  Preconditioner : FULL_SINGLE_INVERSE : inversion of 
                                         H + eS - 2*(Sc)(c^T*H*c+const)(Sc)^T
  Precond_solver : DEFAULT
  stepsize       :    0.08000000                  energy_gap     :    0.08000000
  eps_taylor     :   0.10000E-15                  max_taylor     :             4
  ----------------------------------- OT ---------------------------------------

  Step     Update method      Time    Convergence         Total energy    Change
  ------------------------------------------------------------------------------
     1 OT DIIS     0.80E-01    0.9     0.00257677       -17.2213977355 -1.72E+01
     2 OT DIIS     0.80E-01    1.1     0.00127035       -17.2214399179 -4.22E-05
     3 OT DIIS     0.80E-01    1.1     0.00066838       -17.2214540140 -1.41E-05
     4 OT DIIS     0.80E-01    1.1     0.00017626       -17.2214595948 -5.58E-06
     5 OT DIIS     0.80E-01    1.1     0.00003388       -17.2214600039 -4.09E-07

  *** SCF run converged in     5 steps ***


  Electronic density on regular grids:         -7.6523758795        0.3476241205
  Core density on regular grids:                8.0000000000       -0.0000000000
  Hard and soft densities (Lebedev):          -56.1768107129      -55.8291869895
  Total Rho_soft + Rho1_hard - Rho1_soft       -7.9999996029
  Total charge density (r-space):               0.0000003971
  Total Rho_soft + Rho0_soft (g-space):         0.0000003714

  Overlap energy of the core charge distribution:               0.00000004059825
  Self energy of the core charge distribution:                -44.34715499673765
  Core Hamiltonian energy:                                     12.88366001136756
  Hartree energy:                                              20.09840012922160
  Exchange-correlation energy:                                 -3.87428537810435

  GAPW| Exc from hard and soft atomic rho1:                    -0.34485056709413
  GAPW| local Eh = 1 center integrals:                         -1.63722924313902

  Total energy:                                               -17.22146000388775

  outer SCF iter =    1 RMS gradient =   0.34E-04 energy =        -17.2214600039
  outer SCF loop converged in   1 iterations or    5 steps

  
  Eigenvalues of the occupied subspace spin            1
 ---------------------------------------------
      -0.92859959     -0.47955716     -0.34074931     -0.26364665
 Fermi Energy [eV] :   -7.174190
  
  Lowest Eigenvalues of the unoccupied subspace spin            1
 -----------------------------------------------------
 OT| Eigensolver reached convergence in 39 iterations
       0.00610214
  
 HOMO - LUMO gap [eV] :    7.340238

 ENERGY| Total FORCE_EVAL ( QS ) energy [a.u.]:              -17.221460003887746

 -------------------------------------------------------------------------------
 -                                                                             -
 -                                DBCSR STATISTICS                             -
 -                                                                             -
 -------------------------------------------------------------------------------
 COUNTER                                    TOTAL       BLAS       SMM       ACC
 flops     4 x     1 x     4                  512       0.0%    100.0%      0.0%
 flops     4 x     1 x     6                 1536       0.0%    100.0%      0.0%
 flops     4 x     1 x    17                 2176       0.0%    100.0%      0.0%
 flops    29 x     1 x     4                 3712       0.0%    100.0%      0.0%
 flops    17 x     4 x     4                 6528       0.0%    100.0%      0.0%
 flops     5 x     5 x     6                 9600       0.0%    100.0%      0.0%
 flops     5 x     1 x     5                11300       0.0%    100.0%      0.0%
 flops     6 x     5 x     6                11520       0.0%    100.0%      0.0%
 flops     6 x     1 x     5                13560       0.0%    100.0%      0.0%
 flops     5 x     5 x    17                13600       0.0%    100.0%      0.0%
 flops     6 x     5 x    17                16320       0.0%    100.0%      0.0%
 flops     1 x     1 x     6                20640       0.0%    100.0%      0.0%
 flops     5 x     1 x     6                27120       0.0%    100.0%      0.0%
 flops     1 x     1 x    17                29240       0.0%    100.0%      0.0%
 flops     5 x     1 x    17                38420       0.0%    100.0%      0.0%
 flops    23 x     5 x     6                44160       0.0%    100.0%      0.0%
 flops    23 x     1 x     5                51980       0.0%    100.0%      0.0%
 flops    23 x     5 x    17                62560       0.0%    100.0%      0.0%
 flops     6 x     4 x     4                99264       0.0%    100.0%      0.0%
 flops     6 x    17 x     4               110976       0.0%    100.0%      0.0%
 flops    17 x     6 x     4               110976       0.0%    100.0%      0.0%
 flops     6 x     6 x     4               117504       0.0%    100.0%      0.0%
 flops    23 x     1 x     6               124752       0.0%    100.0%      0.0%
 flops     4 x     4 x     4               126592       0.0%    100.0%      0.0%
 flops     4 x     4 x     6               161280       0.0%    100.0%      0.0%
 flops    23 x     1 x    17               176732       0.0%    100.0%      0.0%
 flops     4 x     4 x    17               228480       0.0%    100.0%      0.0%
 flops    23 x     4 x     6               249504       0.0%    100.0%      0.0%
 flops     6 x     1 x     6               294048       0.0%    100.0%      0.0%
 flops    17 x    17 x     4               314432       0.0%    100.0%      0.0%
 flops    23 x     4 x    17               353464       0.0%    100.0%      0.0%
 flops    23 x     4 x     4               362848       0.0%    100.0%      0.0%
 flops    17 x     1 x     6               370464       0.0%    100.0%      0.0%
 flops     6 x     1 x    17               416568       0.0%    100.0%      0.0%
 flops     6 x     4 x     6               439488       0.0%    100.0%      0.0%
 flops    17 x     1 x    17               524824       0.0%    100.0%      0.0%
 flops    17 x     4 x     6               530400       0.0%    100.0%      0.0%
 flops     6 x     4 x    17               622608       0.0%    100.0%      0.0%
 flops    17 x     4 x    17               751400       0.0%    100.0%      0.0%
 flops inhomo. stacks                       81452       0.0%    100.0%      0.0%
 flops total                         6.932540E+06       0.0%    100.0%      0.0%
 flops max/rank                      5.811980E+06       0.0%    100.0%      0.0%
 matmuls inhomo. stacks                      3866       0.0%    100.0%      0.0%
 matmuls total                              25244       0.0%    100.0%      0.0%
 number of processed stacks                 23744       0.0%    100.0%      0.0%
 average stack size                                     0.0       1.1       0.0
 marketing flops                     7.206636E+06
 -------------------------------------------------------------------------------
 # multiplications                           8714
 max memory usage/rank             303.534080E+06
 # max total images/rank                        3
 # max 3D layers                                1
 # MPI messages exchanged                 3973584
 MPI messages size (bytes):
  total size                        69.850704E+06
  min size                           0.000000E+00
  max size                           3.944000E+03
  average size                      17.578766E+00
 MPI breakdown and total messages size (bytes):
             size <=      128             3886900                  2602240
       128 < size <=     8192               86684                 67248464
      8192 < size <=    32768                   0                        0
     32768 < size <=   131072                   0                        0
    131072 < size <=  4194304                   0                        0
   4194304 < size <= 16777216                   0                        0
  16777216 < size                               0                        0
 -------------------------------------------------------------------------------

 *** WARNING in dbcsr_mm.F:294 :: Using a non-square number of MPI ranks ***
 *** might lead to poor performance. Used ranks: 24 Suggested: 25 49     ***

 -------------------------------------------------------------------------------
 -                                                                             -
 -                      DBCSR MESSAGE PASSING PERFORMANCE                      -
 -                                                                             -
 -------------------------------------------------------------------------------
 ROUTINE             CALLS      AVE VOLUME [Bytes]
 MP_Bcast               40                     12.
 MP_Allreduce        43563                      8.
 MP_Alltoall         35403                   1261.
 MP_ISend           368408                     97.
 MP_IRecv           369988                     69.
 -------------------------------------------------------------------------------

 -------------------------------------------------------------------------------
 -                                                                             -
 -                                GRID STATISTICS                              -
 -                                                                             -
 -------------------------------------------------------------------------------
 LP    KERNEL             BACKEND                              COUNT     PERCENT
 2     collocate ortho    REF                                  12291      20.52%
 2     integrate ortho    REF                                  10832      18.08%
 2     collocate general  REF                                   8064      13.46%
 2     integrate general  REF                                   7272      12.14%
 3     integrate ortho    REF                                   7243      12.09%
 3     collocate ortho    REF                                   6780      11.32%
 4     integrate ortho    REF                                   3185       5.32%
 4     collocate ortho    REF                                   2825       4.72%
 3     integrate general  REF                                    792       1.32%
 1     collocate ortho    REF                                    336       0.56%
 5     integrate ortho    REF                                    275       0.46%
 -------------------------------------------------------------------------------

 MEMORY| Estimated peak process memory [MiB]                                 290

 -------------------------------------------------------------------------------
 ----                             MULTIGRID INFO                            ----
 -------------------------------------------------------------------------------
 count for grid        1:         295051          cutoff [a.u.]          200.00
 count for grid        2:         118980          cutoff [a.u.]           66.67
 count for grid        3:         110232          cutoff [a.u.]           22.22
 count for grid        4:          66792          cutoff [a.u.]            7.41
 total gridlevel count  :         591055

 -------------------------------------------------------------------------------
 -                                                                             -
 -                         MESSAGE PASSING PERFORMANCE                         -
 -                                                                             -
 -------------------------------------------------------------------------------

 ROUTINE             CALLS      AVE VOLUME [Bytes]
 MP_Group                4
 MP_Bcast             4640                  82447.
 MP_Allreduce        13748                   1184.
 MP_Sync              1028
 MP_Alltoall          3218               10915675.
 MP_ISendRecv        11454                  59520.
 MP_Wait             34583
 MP_comm_split         512
 MP_ISend            20714                 279566.
 MP_IRecv            20714                 279622.
 MP_Recv                76                    186.
 MP_Write_All           24                 485376.
 -------------------------------------------------------------------------------


 -------------------------------------------------------------------------------
 -                                                                             -
 -                           R E F E R E N C E S                               -
 -                                                                             -
 -------------------------------------------------------------------------------
 
 CP2K version 9.1, the CP2K developers group (2021).
 CP2K is freely available from https://www.cp2k.org/ .

 Kuehne,Thomas D.; Iannuzzi,Marcella; Del Ben,Mauro;
 Rybkin,Vladimir V.; Seewald,Patrick; Stein,Frederick; Laino,Teodoro;
 Khaliullin,Rustam Z.; Schuett,Ole; Schiffmann,Florian; Golze,Dorothea;
 Wilhelm,Jan; Chulkov,Sergey; Bani-Hashemian,Mohammad Hossein;
 Weber,Valery; Borstnik,Urban; Taillefumier,Mathieu;
 Jakobovits,Alice Shoshana; Lazzaro,Alfio; Pabst,Hans; Mueller,Tiziano;
 Schade,Robert; Guidon,Manuel; Andermatt,Samuel; Holmberg,Nico;
 Schenter,Gregory K.; Hehn,Anna; Bussy,Augustin; Belleflamme,Fabian;
 Tabacchi,Gloria; Gloess,Andreas; Lass,Michael; Bethune,Iain;
 Mundy,Christopher J.; Plessl,Christian; Watkins,Matt;
 VandeVondele,Joost; Krack,Matthias; Hutter,Juerg. 
 The Journal of Chemical Physics, 152 (19), (2020). 
 CP2K: An electronic structure and molecular dynamics software package -
 Quickstep: Efficient and accurate electronic structure calculations.
 https://doi.org/10.1063/5.0007045

 Schuett, Ole; Messmer, Peter; Hutter, Juerg; VandeVondele, Joost. 
 Electronic Structure Calculations on Graphics Processing Units, John
 Wiley & Sons, Ltd, 173-190 (2016). 
 GPU-Accelerated Sparse Matrix-Matrix Multiplication for
 Linear Scaling Density Functional Theory.
 https://doi.org/10.1002/9781118670712.ch8

 Borstnik, U; VandeVondele, J; Weber, V; Hutter, J. 
 PARALLEL COMPUTING, 40 (5-6), 47-58 (2014). 
 Sparse matrix multiplication: The distributed block-compressed sparse
 row library.
 https://doi.org/10.1016/j.parco.2014.03.012

 Hutter, J; Iannuzzi, M; Schiffmann, F; VandeVondele, J. 
 WIREs Comput Mol Sci., 4 (1), 15-25 (2014). 
 CP2K: atomistic simulations of condensed matter systems.
 https://doi.org/10.1002/wcms.1159

 Marek, A; Blum, V; Johanni, R; Havu, V; Lang, B; Auckenthaler, T;
 Heinecke, A; Bungartz, H; Lederer, H. 
 Journal of Physics: Condensed Matter, 26 (21), (2014). 
 The ELPA library: scalable parallel eigenvalue solutions for
 electronic structure
 theory and computational science.
 https://doi.org/10.1088/0953-8984/26/21/213201

 VandeVondele, J; Hutter, J. 
 JOURNAL OF CHEMICAL PHYSICS, 127 (11), 114105 (2007). 
 Gaussian basis sets for accurate calculations on molecular systems in
 gas and condensed phases.
 https://doi.org/10.1063/1.2770708

 Genovese, L; Deutsch, T; Goedecker, S. 
 JOURNAL OF CHEMICAL PHYSICS, 127 (5), 054704 (2007). 
 Efficient and accurate three-dimensional Poisson solver for surface
 problems.
 https://doi.org/10.1063/1.2754685

 Kuhne, TD; Krack, M; Mohamed, FR; Parrinello, M. 
 PHYSICAL REVIEW LETTERS, 98 (6), 066401 (2007). 
 Efficient and accurate Car-Parrinello-like approach to
 Born-Oppenheimer molecular dynamics.
 https://doi.org/10.1103/PhysRevLett.98.066401

 Genovese, L; Deutsch, T; Neelov, A; Goedecker, S; Beylkin, G. 
 JOURNAL OF CHEMICAL PHYSICS, 125 (7), 074105 (2006). 
 Efficient solution of Poisson's equation with free boundary conditions.
 https://doi.org/10.1063/1.2335442

 Krack, M. 
 THEORETICAL CHEMISTRY ACCOUNTS, 114 (1-3), 145-152 (2005). 
 Pseudopotentials for H to Kr optimized for gradient-corrected
 exchange-correlation functionals.
 https://doi.org/10.1007/s00214-005-0655-y

 Frigo, M; Johnson, SG. 
 PROCEEDINGS OF THE IEEE, 93 (2), 216-231 (2005). 
 The design and implementation of FFTW3.
 https://doi.org/10.1109/JPROC.2004.840301

 Kolafa, J. 
 JOURNAL OF COMPUTATIONAL CHEMISTRY, 25 (3), 335-342 (2004). 
 Time-reversible always stable predictor-corrector method for
 molecular dynamics of polarizable molecules.
 https://doi.org/10.1002/jcc.10385

 VandeVondele, J; Hutter, J. 
 JOURNAL OF CHEMICAL PHYSICS, 118 (10), 4365-4369 (2003). 
 An efficient orbital transformation method for electronic structure
 calculations.
 https://doi.org/10.1063/1.1543154

 Lippert, G; Hutter, J; Parrinello, M. 
 THEORETICAL CHEMISTRY ACCOUNTS, 103 (2), 124-140 (1999). 
 The Gaussian and augmented-plane-wave density functional method for ab
 initio molecular dynamics simulations.
 https://doi.org/10.1007/s002140050523

 Krack, M; Parrinello, M. 
 PHYSICAL CHEMISTRY CHEMICAL PHYSICS, 2 (10), 2105-2112 (2000). 
 All-electron ab-initio molecular dynamics.
 https://doi.org/10.1039/b001167n

 Hartwigsen, C; Goedecker, S; Hutter, J. 
 PHYSICAL REVIEW B, 58 (7), 3641-3662 (1998). 
 Relativistic separable dual-space Gaussian pseudopotentials from H to Rn.
 https://doi.org/10.1103/PhysRevB.58.3641

 Perdew, JP; Burke, K; Ernzerhof, M. 
 PHYSICAL REVIEW LETTERS, 77 (18), 3865-3868 (1996). 
 Generalized gradient approximation made simple.
 https://doi.org/10.1103/PhysRevLett.77.3865

 Goedecker, S; Teter, M; Hutter, J. 
 PHYSICAL REVIEW B, 54 (3), 1703-1710 (1996). 
 Separable dual-space Gaussian pseudopotentials.
 https://doi.org/10.1103/PhysRevB.54.1703


 -------------------------------------------------------------------------------
 -                                                                             -
 -                                T I M I N G                                  -
 -                                                                             -
 -------------------------------------------------------------------------------
 SUBROUTINE                       CALLS  ASD         SELF TIME        TOTAL TIME
                                MAXIMUM       AVERAGE  MAXIMUM  AVERAGE  MAXIMUM
 CP2K                                 1  1.0    0.014    0.019  134.391  134.392
 cp_geo_opt                           1  2.0    0.000    0.001  134.174  134.175
 geoopt_bfgs                          1  3.0    0.001    0.003  134.174  134.175
 cp_eval_at                          12  4.0    0.001    0.001  134.033  134.033
 qs_forces                           11  5.0    0.001    0.001  127.488  127.488
 qs_energies                         12  5.9    0.000    0.000  123.885  123.885
 scf_env_do_scf                      12  6.9    0.003    0.004  111.062  111.062
 rebuild_ks_matrix                  112  9.7    0.000    0.000  103.537  103.539
 qs_ks_build_kohn_sham_matrix       112 10.7    0.016    0.018  103.537  103.539
 scf_env_do_scf_inner_loop          101  8.0    0.002    0.005   99.186   99.196
 qs_ks_update_qs_env                113  8.9    0.000    0.001   93.423   93.424
 pw_transfer                       2477 13.2    0.151    0.207   72.747   78.280
 fft_wrap_pw1pw2                   2365 14.2    0.025    0.030   72.449   77.988
 fft_wrap_pw1pw2_200               1618 15.3    6.239    6.403   71.007   76.571
 fft3d_ps                          2365 16.2   33.454   34.134   54.793   60.437
 qs_vxc_create                      112 11.7    0.001    0.001   51.441   51.441
 xc_vxc_pw_create                   112 12.7    0.481    0.568   51.440   51.440
 xc_rho_set_and_dset_create         112 13.7    0.285    0.292   28.144   30.991
 pw_poisson_solve                   112 11.7    0.476    0.501   20.007   20.007
 yz_to_x                           1220 16.8    4.504    4.678   11.834   17.477
 rs_pw_transfer                    1220 13.0    0.018    0.023   17.299   17.369
 mp_alltoall_z22v                  2365 18.2   11.617   17.297   11.617   17.297
 qs_rho_update_rho                  113  9.0    0.001    0.001   17.207   17.207
 calculate_rho_elec                 113 10.0    0.137    0.155   17.159   17.159
 density_rs2pw                      113 11.0    0.008    0.009   15.370   15.446
 xc_functional_eval                 336 14.5    0.001    0.003    9.727   12.511
 pbe_lda_eval                       336 15.5    9.726   12.510    9.726   12.510
 init_scf_loop                       12  7.9    0.000    0.000   11.856   11.856
 scf_post_calculation_gpw            12  6.9    0.001    0.001   10.811   10.815
 sum_up_and_integrate               112 11.7    0.146    0.149   10.756   10.757
 integrate_v_rspace                 112 12.7    0.002    0.003   10.610   10.614
 potential_pw2rs                    112 13.7    0.013    0.014   10.490   10.497
 qs_ks_update_qs_env_forces          11  6.0    0.000    0.000   10.118   10.119
 x_to_yz                           1145 17.7    5.170    5.243    9.457    9.670
 prepare_gapw_den                   112 11.7    0.001    0.001    9.645    9.669
 put_rho0_on_grid                   112 12.7    0.141    0.147    8.807    8.831
 ps_wavelet_solve                   112 12.7    5.588    6.134    7.630    7.671
 rs_pw_transfer_PW2RS_200           224 14.7    4.580    4.638    7.276    7.340
 rs_pw_transfer_RS2PW_200           249 13.6    5.385    5.546    7.224    7.295
 dbcsr_multiply_generic            8714 12.4    0.221    0.236    6.904    6.941
 pw_gather_p                       1220 15.8    5.722    5.900    5.722    5.900
 make_lumo_gpw                       12  7.9    0.000    0.000    5.646    5.646
 pw_scatter_p                      1145 16.7    5.516    5.624    5.516    5.624
 ot_eigensolver                      12  8.9    0.004    0.005    5.621    5.621
 mp_alltoall_d54                    112 13.7    1.138    5.299    1.138    5.299
 integrate_vhg0_rspace              112 11.7    0.031    0.038    4.423    4.425
 ot_mini                            541 10.3    0.002    0.002    3.850    3.863
 mp_waitany                       20714 15.1    3.607    3.763    3.607    3.763
 qs_ot_get_derivative               327 11.5    0.002    0.002    3.506    3.514
 pw_derive                          672 14.2    3.408    3.508    3.408    3.508
 calculate_wavefunction              24  8.9    0.010    0.020    3.445    3.450
 multiply_cannon                   8714 13.4    0.466    0.471    2.787    2.889
 make_m2s                         17428 13.4    0.184    0.195    2.707    2.850
 -------------------------------------------------------------------------------

 The number of warnings for this run is : 2
 
 -------------------------------------------------------------------------------
  **** **** ******  **  PROGRAM ENDED AT                 2023-04-15 11:55:18.519
 ***** ** ***  *** **   PROGRAM RAN ON                                  nid02000
 **    ****   ******    PROGRAM RAN BY                                   ramador
 ***** **    ** ** **   PROGRAM PROCESS ID                                 32465
  **** **  *******  **  PROGRAM STOPPED IN /scratch/snx3000/ramador/MMM_2023/ex7
                                           /h2o
