
     Program PWSCF v.7.1 starts on 17Mar2023 at 10: 3:28 

     This program is part of the open-source Quantum ESPRESSO suite
     for quantum simulation of materials; please cite
         "P. Giannozzi et al., J. Phys.:Condens. Matter 21 395502 (2009);
         "P. Giannozzi et al., J. Phys.:Condens. Matter 29 465901 (2017);
         "P. Giannozzi et al., J. Chem. Phys. 152 154105 (2020);
          URL http://www.quantum-espresso.org", 
     in publications or presentations arising from this work. More details at
     http://www.quantum-espresso.org/quote

     Parallel version (MPI), running on    16 processors

     MPI processes distributed on     1 nodes
     230798 MiB available memory on the printing compute node when the environment starts
 
     Waiting for input...
     Reading input from standard input

     Current dimensions of program PWSCF are:
     Max number of different atomic species (ntypx) = 10
     Max number of k-points (npk) =  40000
     Max angular momentum in pseudopotentials (lmaxx) =  4
     file Si.pbe-mt_fhi.UPF: wavefunction(s)  4f renormalized
     Found identity + (  0.0000  0.1667  0.1667) symmetry
     This is a supercell, fractional translations are disabled
 
     R & G space division:  proc/nbgrp/npool/nimage =      16
     Subspace diagonalization in iterative solution of the eigenvalue problem:
     one sub-group per band group will be used
     scalapack distributed-memory algorithm (size of sub-group:  4*  4 procs)

 
     Parallelization info
     --------------------
     sticks:   dense  smooth     PW     G-vecs:    dense   smooth      PW
     Min         565     565    140                40433    40433    5049
     Max         566     566    142                40437    40437    5053
     Sum        9041    9041   2249               646963   646963   80797
 
     Using Slab Decomposition
 


     bravais-lattice index     =            1
     lattice parameter (alat)  =      30.7837  a.u.
     unit-cell volume          =   29171.6083 (a.u.)^3
     number of atoms/cell      =          216
     number of atomic types    =            1
     number of electrons       =       864.00
     number of Kohn-Sham states=          518
     kinetic-energy cutoff     =      30.0000  Ry
     charge density cutoff     =     120.0000  Ry
     scf convergence threshold =      1.0E-08
     mixing beta               =       0.5000
     number of iterations used =            8  plain     mixing
     Exchange-correlation= PBE
                           (   1   4   3   4   0   0   0)

     celldm(1)=  30.783651  celldm(2)=   0.000000  celldm(3)=   0.000000
     celldm(4)=   0.000000  celldm(5)=   0.000000  celldm(6)=   0.000000

     crystal axes: (cart. coord. in units of alat)
               a(1) = (   1.000000   0.000000   0.000000 )  
               a(2) = (   0.000000   1.000000   0.000000 )  
               a(3) = (   0.000000   0.000000   1.000000 )  

     reciprocal axes: (cart. coord. in units 2 pi/alat)
               b(1) = (  1.000000  0.000000  0.000000 )  
               b(2) = (  0.000000  1.000000  0.000000 )  
               b(3) = (  0.000000  0.000000  1.000000 )  


     PseudoPot. # 1 for Si read from file:
     ./Si.pbe-mt_fhi.UPF
     MD5 check sum: 259057c2adf9952f9ced37ae3d9e311d
     Pseudo is Norm-conserving, Zval =  4.0
     Generated using FHI98PP, converted with fhi2upf.x v.5.0.2
     Using radial grid of  495 points,  3 beta functions with: 
                l(1) =   0
                l(2) =   1
                l(3) =   3

     atomic species   valence    mass     pseudopotential
        Si             4.00    28.08600     Si( 1.00)

     24 Sym. Ops. (no inversion) found


                                    s                        frac. trans.

      isym =  1     identity                                     

 cryst.   s( 1) = (     1          0          0      )
                  (     0          1          0      )
                  (     0          0          1      )

 cart.    s( 1) = (  1.0000000  0.0000000  0.0000000 )
                  (  0.0000000  1.0000000  0.0000000 )
                  (  0.0000000  0.0000000  1.0000000 )


      isym =  2     180 deg rotation - cart. axis [0,0,1]        

 cryst.   s( 2) = (    -1          0          0      )
                  (     0         -1          0      )
                  (     0          0          1      )

 cart.    s( 2) = ( -1.0000000  0.0000000  0.0000000 )
                  (  0.0000000 -1.0000000  0.0000000 )
                  (  0.0000000  0.0000000  1.0000000 )


      isym =  3     180 deg rotation - cart. axis [0,1,0]        

 cryst.   s( 3) = (    -1          0          0      )
                  (     0          1          0      )
                  (     0          0         -1      )

 cart.    s( 3) = ( -1.0000000  0.0000000  0.0000000 )
                  (  0.0000000  1.0000000  0.0000000 )
                  (  0.0000000  0.0000000 -1.0000000 )


      isym =  4     180 deg rotation - cart. axis [1,0,0]        

 cryst.   s( 4) = (     1          0          0      )
                  (     0         -1          0      )
                  (     0          0         -1      )

 cart.    s( 4) = (  1.0000000  0.0000000  0.0000000 )
                  (  0.0000000 -1.0000000  0.0000000 )
                  (  0.0000000  0.0000000 -1.0000000 )


      isym =  5     120 deg rotation - cart. axis [-1,-1,-1]     

 cryst.   s( 5) = (     0          0          1      )
                  (     1          0          0      )
                  (     0          1          0      )

 cart.    s( 5) = (  0.0000000  1.0000000  0.0000000 )
                  (  0.0000000  0.0000000  1.0000000 )
                  (  1.0000000  0.0000000  0.0000000 )


      isym =  6     120 deg rotation - cart. axis [-1,1,1]       

 cryst.   s( 6) = (     0          0         -1      )
                  (    -1          0          0      )
                  (     0          1          0      )

 cart.    s( 6) = (  0.0000000 -1.0000000  0.0000000 )
                  (  0.0000000  0.0000000  1.0000000 )
                  ( -1.0000000  0.0000000  0.0000000 )


      isym =  7     120 deg rotation - cart. axis [1,1,-1]       

 cryst.   s( 7) = (     0          0         -1      )
                  (     1          0          0      )
                  (     0         -1          0      )

 cart.    s( 7) = (  0.0000000  1.0000000  0.0000000 )
                  (  0.0000000  0.0000000 -1.0000000 )
                  ( -1.0000000  0.0000000  0.0000000 )


      isym =  8     120 deg rotation - cart. axis [1,-1,1]       

 cryst.   s( 8) = (     0          0          1      )
                  (    -1          0          0      )
                  (     0         -1          0      )

 cart.    s( 8) = (  0.0000000 -1.0000000  0.0000000 )
                  (  0.0000000  0.0000000 -1.0000000 )
                  (  1.0000000  0.0000000  0.0000000 )


      isym =  9     120 deg rotation - cart. axis [1,1,1]        

 cryst.   s( 9) = (     0          1          0      )
                  (     0          0          1      )
                  (     1          0          0      )

 cart.    s( 9) = (  0.0000000  0.0000000  1.0000000 )
                  (  1.0000000  0.0000000  0.0000000 )
                  (  0.0000000  1.0000000  0.0000000 )


      isym = 10     120 deg rotation - cart. axis [-1,1,-1]      

 cryst.   s(10) = (     0         -1          0      )
                  (     0          0         -1      )
                  (     1          0          0      )

 cart.    s(10) = (  0.0000000  0.0000000  1.0000000 )
                  ( -1.0000000  0.0000000  0.0000000 )
                  (  0.0000000 -1.0000000  0.0000000 )


      isym = 11     120 deg rotation - cart. axis [1,-1,-1]      

 cryst.   s(11) = (     0         -1          0      )
                  (     0          0          1      )
                  (    -1          0          0      )

 cart.    s(11) = (  0.0000000  0.0000000 -1.0000000 )
                  ( -1.0000000  0.0000000  0.0000000 )
                  (  0.0000000  1.0000000  0.0000000 )


      isym = 12     120 deg rotation - cart. axis [-1,-1,1]      

 cryst.   s(12) = (     0          1          0      )
                  (     0          0         -1      )
                  (    -1          0          0      )

 cart.    s(12) = (  0.0000000  0.0000000 -1.0000000 )
                  (  1.0000000  0.0000000  0.0000000 )
                  (  0.0000000 -1.0000000  0.0000000 )


      isym = 13     inv. 180 deg rotation - cart. axis [1,1,0]   

 cryst.   s(13) = (     0         -1          0      )
                  (    -1          0          0      )
                  (     0          0          1      )

 cart.    s(13) = (  0.0000000 -1.0000000  0.0000000 )
                  ( -1.0000000  0.0000000  0.0000000 )
                  (  0.0000000  0.0000000  1.0000000 )


      isym = 14     inv. 180 deg rotation - cart. axis [1,-1,0]  

 cryst.   s(14) = (     0          1          0      )
                  (     1          0          0      )
                  (     0          0          1      )

 cart.    s(14) = (  0.0000000  1.0000000  0.0000000 )
                  (  1.0000000  0.0000000  0.0000000 )
                  (  0.0000000  0.0000000  1.0000000 )


      isym = 15     inv.  90 deg rotation - cart. axis [0,0,-1]  

 cryst.   s(15) = (     0          1          0      )
                  (    -1          0          0      )
                  (     0          0         -1      )

 cart.    s(15) = (  0.0000000 -1.0000000  0.0000000 )
                  (  1.0000000  0.0000000  0.0000000 )
                  (  0.0000000  0.0000000 -1.0000000 )


      isym = 16     inv.  90 deg rotation - cart. axis [0,0,1]   

 cryst.   s(16) = (     0         -1          0      )
                  (     1          0          0      )
                  (     0          0         -1      )

 cart.    s(16) = (  0.0000000  1.0000000  0.0000000 )
                  ( -1.0000000  0.0000000  0.0000000 )
                  (  0.0000000  0.0000000 -1.0000000 )


      isym = 17     inv. 180 deg rotation - cart. axis [1,0,1]   

 cryst.   s(17) = (     0          0         -1      )
                  (     0          1          0      )
                  (    -1          0          0      )

 cart.    s(17) = (  0.0000000  0.0000000 -1.0000000 )
                  (  0.0000000  1.0000000  0.0000000 )
                  ( -1.0000000  0.0000000  0.0000000 )


      isym = 18     inv. 180 deg rotation - cart. axis [-1,0,1]  

 cryst.   s(18) = (     0          0          1      )
                  (     0          1          0      )
                  (     1          0          0      )

 cart.    s(18) = (  0.0000000  0.0000000  1.0000000 )
                  (  0.0000000  1.0000000  0.0000000 )
                  (  1.0000000  0.0000000  0.0000000 )


      isym = 19     inv.  90 deg rotation - cart. axis [0,1,0]   

 cryst.   s(19) = (     0          0          1      )
                  (     0         -1          0      )
                  (    -1          0          0      )

 cart.    s(19) = (  0.0000000  0.0000000 -1.0000000 )
                  (  0.0000000 -1.0000000  0.0000000 )
                  (  1.0000000  0.0000000  0.0000000 )


      isym = 20     inv.  90 deg rotation - cart. axis [0,-1,0]  

 cryst.   s(20) = (     0          0         -1      )
                  (     0         -1          0      )
                  (     1          0          0      )

 cart.    s(20) = (  0.0000000  0.0000000  1.0000000 )
                  (  0.0000000 -1.0000000  0.0000000 )
                  ( -1.0000000  0.0000000  0.0000000 )


      isym = 21     inv. 180 deg rotation - cart. axis [0,1,1]   

 cryst.   s(21) = (     1          0          0      )
                  (     0          0         -1      )
                  (     0         -1          0      )

 cart.    s(21) = (  1.0000000  0.0000000  0.0000000 )
                  (  0.0000000  0.0000000 -1.0000000 )
                  (  0.0000000 -1.0000000  0.0000000 )


      isym = 22     inv. 180 deg rotation - cart. axis [0,1,-1]  

 cryst.   s(22) = (     1          0          0      )
                  (     0          0          1      )
                  (     0          1          0      )

 cart.    s(22) = (  1.0000000  0.0000000  0.0000000 )
                  (  0.0000000  0.0000000  1.0000000 )
                  (  0.0000000  1.0000000  0.0000000 )


      isym = 23     inv.  90 deg rotation - cart. axis [-1,0,0]  

 cryst.   s(23) = (    -1          0          0      )
                  (     0          0          1      )
                  (     0         -1          0      )

 cart.    s(23) = ( -1.0000000  0.0000000  0.0000000 )
                  (  0.0000000  0.0000000 -1.0000000 )
                  (  0.0000000  1.0000000  0.0000000 )


      isym = 24     inv.  90 deg rotation - cart. axis [1,0,0]   

 cryst.   s(24) = (    -1          0          0      )
                  (     0          0         -1      )
                  (     0          1          0      )

 cart.    s(24) = ( -1.0000000  0.0000000  0.0000000 )
                  (  0.0000000  0.0000000  1.0000000 )
                  (  0.0000000 -1.0000000  0.0000000 )


     point group T_d (-43m) 
     there are  5 classes
     the character table:

       E     8C3   3C2   6S4   6s_d 
A_1    1.00  1.00  1.00  1.00  1.00
A_2    1.00  1.00  1.00 -1.00 -1.00
E      2.00 -1.00  2.00  0.00  0.00
T_1    3.00  0.00 -1.00  1.00 -1.00
T_2    3.00  0.00 -1.00 -1.00  1.00

     the symmetry operations in each class and the name of the first element:

     E        1
          identity                                               
     8C3      5    7    8    6   12    9   10   11
          120 deg rotation - cart. axis [-1,-1,-1]               
     3C2      2    3    4
          180 deg rotation - cart. axis [0,0,1]                  
     6S4     15   16   20   19   23   24
          inv.  90 deg rotation - cart. axis [0,0,-1]            
     6s_d    13   14   17   18   21   22
          inv. 180 deg rotation - cart. axis [1,1,0]             

   Cartesian axes

     site n.     atom                  positions (alat units)
         1           Si  tau(   1) = (   0.0000000   0.0000000   0.0000000  )
         2           Si  tau(   2) = (   0.0000000   0.1666670   0.1666670  )
         3           Si  tau(   3) = (   0.1666670   0.0000000   0.1666670  )
         4           Si  tau(   4) = (   0.1666670   0.1666670   0.0000000  )
         5           Si  tau(   5) = (   0.2500000   0.0833330   0.2500000  )
         6           Si  tau(   6) = (   0.0833330   0.0833330   0.0833330  )
         7           Si  tau(   7) = (   0.0833330   0.2500000   0.2500000  )
         8           Si  tau(   8) = (   0.2500000   0.2500000   0.0833330  )
         9           Si  tau(   9) = (   0.3333330   0.0000000   0.0000000  )
        10           Si  tau(  10) = (   0.3333330   0.1666670   0.1666670  )
        11           Si  tau(  11) = (   0.5000000   0.0000000   0.1666670  )
        12           Si  tau(  12) = (   0.5000000   0.1666670   0.0000000  )
        13           Si  tau(  13) = (   0.5833330   0.0833330   0.2500000  )
        14           Si  tau(  14) = (   0.4166670   0.0833330   0.0833330  )
        15           Si  tau(  15) = (   0.4166670   0.2500000   0.2500000  )
        16           Si  tau(  16) = (   0.5833330   0.2500000   0.0833330  )
        17           Si  tau(  17) = (   0.6666670   0.0000000   0.0000000  )
        18           Si  tau(  18) = (   0.6666670   0.1666670   0.1666670  )
        19           Si  tau(  19) = (   0.8333330   0.0000000   0.1666670  )
        20           Si  tau(  20) = (   0.8333330   0.1666670   0.0000000  )
        21           Si  tau(  21) = (   0.9166670   0.0833330   0.2500000  )
        22           Si  tau(  22) = (   0.7500000   0.0833330   0.0833330  )
        23           Si  tau(  23) = (   0.7500000   0.2500000   0.2500000  )
        24           Si  tau(  24) = (   0.9166670   0.2500000   0.0833330  )
        25           Si  tau(  25) = (   0.0000000   0.3333330   0.0000000  )
        26           Si  tau(  26) = (   0.0000000   0.5000000   0.1666670  )
        27           Si  tau(  27) = (   0.1666670   0.3333330   0.1666670  )
        28           Si  tau(  28) = (   0.1666670   0.5000000   0.0000000  )
        29           Si  tau(  29) = (   0.2500000   0.4166670   0.2500000  )
        30           Si  tau(  30) = (   0.0833330   0.4166670   0.0833330  )
        31           Si  tau(  31) = (   0.0833330   0.5833330   0.2500000  )
        32           Si  tau(  32) = (   0.2500000   0.5833330   0.0833330  )
        33           Si  tau(  33) = (   0.3333330   0.3333330   0.0000000  )
        34           Si  tau(  34) = (   0.3333330   0.5000000   0.1666670  )
        35           Si  tau(  35) = (   0.5000000   0.3333330   0.1666670  )
        36           Si  tau(  36) = (   0.5000000   0.5000000   0.0000000  )
        37           Si  tau(  37) = (   0.5833330   0.4166670   0.2500000  )
        38           Si  tau(  38) = (   0.4166670   0.4166670   0.0833330  )
        39           Si  tau(  39) = (   0.4166670   0.5833330   0.2500000  )
        40           Si  tau(  40) = (   0.5833330   0.5833330   0.0833330  )
        41           Si  tau(  41) = (   0.6666670   0.3333330   0.0000000  )
        42           Si  tau(  42) = (   0.6666670   0.5000000   0.1666670  )
        43           Si  tau(  43) = (   0.8333330   0.3333330   0.1666670  )
        44           Si  tau(  44) = (   0.8333330   0.5000000   0.0000000  )
        45           Si  tau(  45) = (   0.9166670   0.4166670   0.2500000  )
        46           Si  tau(  46) = (   0.7500000   0.4166670   0.0833330  )
        47           Si  tau(  47) = (   0.7500000   0.5833330   0.2500000  )
        48           Si  tau(  48) = (   0.9166670   0.5833330   0.0833330  )
        49           Si  tau(  49) = (   0.0000000   0.6666670   0.0000000  )
        50           Si  tau(  50) = (   0.0000000   0.8333330   0.1666670  )
        51           Si  tau(  51) = (   0.1666670   0.6666670   0.1666670  )
        52           Si  tau(  52) = (   0.1666670   0.8333330   0.0000000  )
        53           Si  tau(  53) = (   0.2500000   0.7500000   0.2500000  )
        54           Si  tau(  54) = (   0.0833330   0.7500000   0.0833330  )
        55           Si  tau(  55) = (   0.0833330   0.9166670   0.2500000  )
        56           Si  tau(  56) = (   0.2500000   0.9166670   0.0833330  )
        57           Si  tau(  57) = (   0.3333330   0.6666670   0.0000000  )
        58           Si  tau(  58) = (   0.3333330   0.8333330   0.1666670  )
        59           Si  tau(  59) = (   0.5000000   0.6666670   0.1666670  )
        60           Si  tau(  60) = (   0.5000000   0.8333330   0.0000000  )
        61           Si  tau(  61) = (   0.5833330   0.7500000   0.2500000  )
        62           Si  tau(  62) = (   0.4166670   0.7500000   0.0833330  )
        63           Si  tau(  63) = (   0.4166670   0.9166670   0.2500000  )
        64           Si  tau(  64) = (   0.5833330   0.9166670   0.0833330  )
        65           Si  tau(  65) = (   0.6666670   0.6666670   0.0000000  )
        66           Si  tau(  66) = (   0.6666670   0.8333330   0.1666670  )
        67           Si  tau(  67) = (   0.8333330   0.6666670   0.1666670  )
        68           Si  tau(  68) = (   0.8333330   0.8333330   0.0000000  )
        69           Si  tau(  69) = (   0.9166670   0.7500000   0.2500000  )
        70           Si  tau(  70) = (   0.7500000   0.7500000   0.0833330  )
        71           Si  tau(  71) = (   0.7500000   0.9166670   0.2500000  )
        72           Si  tau(  72) = (   0.9166670   0.9166670   0.0833330  )
        73           Si  tau(  73) = (   0.0000000   0.0000000   0.3333330  )
        74           Si  tau(  74) = (   0.0000000   0.1666670   0.5000000  )
        75           Si  tau(  75) = (   0.1666670   0.0000000   0.5000000  )
        76           Si  tau(  76) = (   0.1666670   0.1666670   0.3333330  )
        77           Si  tau(  77) = (   0.2500000   0.0833330   0.5833330  )
        78           Si  tau(  78) = (   0.0833330   0.0833330   0.4166670  )
        79           Si  tau(  79) = (   0.0833330   0.2500000   0.5833330  )
        80           Si  tau(  80) = (   0.2500000   0.2500000   0.4166670  )
        81           Si  tau(  81) = (   0.3333330   0.0000000   0.3333330  )
        82           Si  tau(  82) = (   0.3333330   0.1666670   0.5000000  )
        83           Si  tau(  83) = (   0.5000000   0.0000000   0.5000000  )
        84           Si  tau(  84) = (   0.5000000   0.1666670   0.3333330  )
        85           Si  tau(  85) = (   0.5833330   0.0833330   0.5833330  )
        86           Si  tau(  86) = (   0.4166670   0.0833330   0.4166670  )
        87           Si  tau(  87) = (   0.4166670   0.2500000   0.5833330  )
        88           Si  tau(  88) = (   0.5833330   0.2500000   0.4166670  )
        89           Si  tau(  89) = (   0.6666670   0.0000000   0.3333330  )
        90           Si  tau(  90) = (   0.6666670   0.1666670   0.5000000  )
        91           Si  tau(  91) = (   0.8333330   0.0000000   0.5000000  )
        92           Si  tau(  92) = (   0.8333330   0.1666670   0.3333330  )
        93           Si  tau(  93) = (   0.9166670   0.0833330   0.5833330  )
        94           Si  tau(  94) = (   0.7500000   0.0833330   0.4166670  )
        95           Si  tau(  95) = (   0.7500000   0.2500000   0.5833330  )
        96           Si  tau(  96) = (   0.9166670   0.2500000   0.4166670  )
        97           Si  tau(  97) = (   0.0000000   0.3333330   0.3333330  )
        98           Si  tau(  98) = (   0.0000000   0.5000000   0.5000000  )
        99           Si  tau(  99) = (   0.1666670   0.3333330   0.5000000  )
       100           Si  tau( 100) = (   0.1666670   0.5000000   0.3333330  )
       101           Si  tau( 101) = (   0.2500000   0.4166670   0.5833330  )
       102           Si  tau( 102) = (   0.0833330   0.4166670   0.4166670  )
       103           Si  tau( 103) = (   0.0833330   0.5833330   0.5833330  )
       104           Si  tau( 104) = (   0.2500000   0.5833330   0.4166670  )
       105           Si  tau( 105) = (   0.3333330   0.3333330   0.3333330  )
       106           Si  tau( 106) = (   0.3333330   0.5000000   0.5000000  )
       107           Si  tau( 107) = (   0.5000000   0.3333330   0.5000000  )
       108           Si  tau( 108) = (   0.5000000   0.5000000   0.3333330  )
       109           Si  tau( 109) = (   0.5833330   0.4166670   0.5833330  )
       110           Si  tau( 110) = (   0.4166670   0.4166670   0.4166670  )
       111           Si  tau( 111) = (   0.4166670   0.5833330   0.5833330  )
       112           Si  tau( 112) = (   0.5833330   0.5833330   0.4166670  )
       113           Si  tau( 113) = (   0.6666670   0.3333330   0.3333330  )
       114           Si  tau( 114) = (   0.6666670   0.5000000   0.5000000  )
       115           Si  tau( 115) = (   0.8333330   0.3333330   0.5000000  )
       116           Si  tau( 116) = (   0.8333330   0.5000000   0.3333330  )
       117           Si  tau( 117) = (   0.9166670   0.4166670   0.5833330  )
       118           Si  tau( 118) = (   0.7500000   0.4166670   0.4166670  )
       119           Si  tau( 119) = (   0.7500000   0.5833330   0.5833330  )
       120           Si  tau( 120) = (   0.9166670   0.5833330   0.4166670  )
       121           Si  tau( 121) = (   0.0000000   0.6666670   0.3333330  )
       122           Si  tau( 122) = (   0.0000000   0.8333330   0.5000000  )
       123           Si  tau( 123) = (   0.1666670   0.6666670   0.5000000  )
       124           Si  tau( 124) = (   0.1666670   0.8333330   0.3333330  )
       125           Si  tau( 125) = (   0.2500000   0.7500000   0.5833330  )
       126           Si  tau( 126) = (   0.0833330   0.7500000   0.4166670  )
       127           Si  tau( 127) = (   0.0833330   0.9166670   0.5833330  )
       128           Si  tau( 128) = (   0.2500000   0.9166670   0.4166670  )
       129           Si  tau( 129) = (   0.3333330   0.6666670   0.3333330  )
       130           Si  tau( 130) = (   0.3333330   0.8333330   0.5000000  )
       131           Si  tau( 131) = (   0.5000000   0.6666670   0.5000000  )
       132           Si  tau( 132) = (   0.5000000   0.8333330   0.3333330  )
       133           Si  tau( 133) = (   0.5833330   0.7500000   0.5833330  )
       134           Si  tau( 134) = (   0.4166670   0.7500000   0.4166670  )
       135           Si  tau( 135) = (   0.4166670   0.9166670   0.5833330  )
       136           Si  tau( 136) = (   0.5833330   0.9166670   0.4166670  )
       137           Si  tau( 137) = (   0.6666670   0.6666670   0.3333330  )
       138           Si  tau( 138) = (   0.6666670   0.8333330   0.5000000  )
       139           Si  tau( 139) = (   0.8333330   0.6666670   0.5000000  )
       140           Si  tau( 140) = (   0.8333330   0.8333330   0.3333330  )
       141           Si  tau( 141) = (   0.9166670   0.7500000   0.5833330  )
       142           Si  tau( 142) = (   0.7500000   0.7500000   0.4166670  )
       143           Si  tau( 143) = (   0.7500000   0.9166670   0.5833330  )
       144           Si  tau( 144) = (   0.9166670   0.9166670   0.4166670  )
       145           Si  tau( 145) = (   0.0000000   0.0000000   0.6666670  )
       146           Si  tau( 146) = (   0.0000000   0.1666670   0.8333330  )
       147           Si  tau( 147) = (   0.1666670   0.0000000   0.8333330  )
       148           Si  tau( 148) = (   0.1666670   0.1666670   0.6666670  )
       149           Si  tau( 149) = (   0.2500000   0.0833330   0.9166670  )
       150           Si  tau( 150) = (   0.0833330   0.0833330   0.7500000  )
       151           Si  tau( 151) = (   0.0833330   0.2500000   0.9166670  )
       152           Si  tau( 152) = (   0.2500000   0.2500000   0.7500000  )
       153           Si  tau( 153) = (   0.3333330   0.0000000   0.6666670  )
       154           Si  tau( 154) = (   0.3333330   0.1666670   0.8333330  )
       155           Si  tau( 155) = (   0.5000000   0.0000000   0.8333330  )
       156           Si  tau( 156) = (   0.5000000   0.1666670   0.6666670  )
       157           Si  tau( 157) = (   0.5833330   0.0833330   0.9166670  )
       158           Si  tau( 158) = (   0.4166670   0.0833330   0.7500000  )
       159           Si  tau( 159) = (   0.4166670   0.2500000   0.9166670  )
       160           Si  tau( 160) = (   0.5833330   0.2500000   0.7500000  )
       161           Si  tau( 161) = (   0.6666670   0.0000000   0.6666670  )
       162           Si  tau( 162) = (   0.6666670   0.1666670   0.8333330  )
       163           Si  tau( 163) = (   0.8333330   0.0000000   0.8333330  )
       164           Si  tau( 164) = (   0.8333330   0.1666670   0.6666670  )
       165           Si  tau( 165) = (   0.9166670   0.0833330   0.9166670  )
       166           Si  tau( 166) = (   0.7500000   0.0833330   0.7500000  )
       167           Si  tau( 167) = (   0.7500000   0.2500000   0.9166670  )
       168           Si  tau( 168) = (   0.9166670   0.2500000   0.7500000  )
       169           Si  tau( 169) = (   0.0000000   0.3333330   0.6666670  )
       170           Si  tau( 170) = (   0.0000000   0.5000000   0.8333330  )
       171           Si  tau( 171) = (   0.1666670   0.3333330   0.8333330  )
       172           Si  tau( 172) = (   0.1666670   0.5000000   0.6666670  )
       173           Si  tau( 173) = (   0.2500000   0.4166670   0.9166670  )
       174           Si  tau( 174) = (   0.0833330   0.4166670   0.7500000  )
       175           Si  tau( 175) = (   0.0833330   0.5833330   0.9166670  )
       176           Si  tau( 176) = (   0.2500000   0.5833330   0.7500000  )
       177           Si  tau( 177) = (   0.3333330   0.3333330   0.6666670  )
       178           Si  tau( 178) = (   0.3333330   0.5000000   0.8333330  )
       179           Si  tau( 179) = (   0.5000000   0.3333330   0.8333330  )
       180           Si  tau( 180) = (   0.5000000   0.5000000   0.6666670  )
       181           Si  tau( 181) = (   0.5833330   0.4166670   0.9166670  )
       182           Si  tau( 182) = (   0.4166670   0.4166670   0.7500000  )
       183           Si  tau( 183) = (   0.4166670   0.5833330   0.9166670  )
       184           Si  tau( 184) = (   0.5833330   0.5833330   0.7500000  )
       185           Si  tau( 185) = (   0.6666670   0.3333330   0.6666670  )
       186           Si  tau( 186) = (   0.6666670   0.5000000   0.8333330  )
       187           Si  tau( 187) = (   0.8333330   0.3333330   0.8333330  )
       188           Si  tau( 188) = (   0.8333330   0.5000000   0.6666670  )
       189           Si  tau( 189) = (   0.9166670   0.4166670   0.9166670  )
       190           Si  tau( 190) = (   0.7500000   0.4166670   0.7500000  )
       191           Si  tau( 191) = (   0.7500000   0.5833330   0.9166670  )
       192           Si  tau( 192) = (   0.9166670   0.5833330   0.7500000  )
       193           Si  tau( 193) = (   0.0000000   0.6666670   0.6666670  )
       194           Si  tau( 194) = (   0.0000000   0.8333330   0.8333330  )
       195           Si  tau( 195) = (   0.1666670   0.6666670   0.8333330  )
       196           Si  tau( 196) = (   0.1666670   0.8333330   0.6666670  )
       197           Si  tau( 197) = (   0.2500000   0.7500000   0.9166670  )
       198           Si  tau( 198) = (   0.0833330   0.7500000   0.7500000  )
       199           Si  tau( 199) = (   0.0833330   0.9166670   0.9166670  )
       200           Si  tau( 200) = (   0.2500000   0.9166670   0.7500000  )
       201           Si  tau( 201) = (   0.3333330   0.6666670   0.6666670  )
       202           Si  tau( 202) = (   0.3333330   0.8333330   0.8333330  )
       203           Si  tau( 203) = (   0.5000000   0.6666670   0.8333330  )
       204           Si  tau( 204) = (   0.5000000   0.8333330   0.6666670  )
       205           Si  tau( 205) = (   0.5833330   0.7500000   0.9166670  )
       206           Si  tau( 206) = (   0.4166670   0.7500000   0.7500000  )
       207           Si  tau( 207) = (   0.4166670   0.9166670   0.9166670  )
       208           Si  tau( 208) = (   0.5833330   0.9166670   0.7500000  )
       209           Si  tau( 209) = (   0.6666670   0.6666670   0.6666670  )
       210           Si  tau( 210) = (   0.6666670   0.8333330   0.8333330  )
       211           Si  tau( 211) = (   0.8333330   0.6666670   0.8333330  )
       212           Si  tau( 212) = (   0.8333330   0.8333330   0.6666670  )
       213           Si  tau( 213) = (   0.9166670   0.7500000   0.9166670  )
       214           Si  tau( 214) = (   0.7500000   0.7500000   0.7500000  )
       215           Si  tau( 215) = (   0.7500000   0.9166670   0.9166670  )
       216           Si  tau( 216) = (   0.9166670   0.9166670   0.7500000  )

   Crystallographic axes

     site n.     atom                  positions (cryst. coord.)
         1           Si  tau(   1) = (  0.0000000  0.0000000  0.0000000  )
         2           Si  tau(   2) = (  0.0000000  0.1666670  0.1666670  )
         3           Si  tau(   3) = (  0.1666670  0.0000000  0.1666670  )
         4           Si  tau(   4) = (  0.1666670  0.1666670  0.0000000  )
         5           Si  tau(   5) = (  0.2500000  0.0833330  0.2500000  )
         6           Si  tau(   6) = (  0.0833330  0.0833330  0.0833330  )
         7           Si  tau(   7) = (  0.0833330  0.2500000  0.2500000  )
         8           Si  tau(   8) = (  0.2500000  0.2500000  0.0833330  )
         9           Si  tau(   9) = (  0.3333330  0.0000000  0.0000000  )
        10           Si  tau(  10) = (  0.3333330  0.1666670  0.1666670  )
        11           Si  tau(  11) = (  0.5000000  0.0000000  0.1666670  )
        12           Si  tau(  12) = (  0.5000000  0.1666670  0.0000000  )
        13           Si  tau(  13) = (  0.5833330  0.0833330  0.2500000  )
        14           Si  tau(  14) = (  0.4166670  0.0833330  0.0833330  )
        15           Si  tau(  15) = (  0.4166670  0.2500000  0.2500000  )
        16           Si  tau(  16) = (  0.5833330  0.2500000  0.0833330  )
        17           Si  tau(  17) = (  0.6666670  0.0000000  0.0000000  )
        18           Si  tau(  18) = (  0.6666670  0.1666670  0.1666670  )
        19           Si  tau(  19) = (  0.8333330  0.0000000  0.1666670  )
        20           Si  tau(  20) = (  0.8333330  0.1666670  0.0000000  )
        21           Si  tau(  21) = (  0.9166670  0.0833330  0.2500000  )
        22           Si  tau(  22) = (  0.7500000  0.0833330  0.0833330  )
        23           Si  tau(  23) = (  0.7500000  0.2500000  0.2500000  )
        24           Si  tau(  24) = (  0.9166670  0.2500000  0.0833330  )
        25           Si  tau(  25) = (  0.0000000  0.3333330  0.0000000  )
        26           Si  tau(  26) = (  0.0000000  0.5000000  0.1666670  )
        27           Si  tau(  27) = (  0.1666670  0.3333330  0.1666670  )
        28           Si  tau(  28) = (  0.1666670  0.5000000  0.0000000  )
        29           Si  tau(  29) = (  0.2500000  0.4166670  0.2500000  )
        30           Si  tau(  30) = (  0.0833330  0.4166670  0.0833330  )
        31           Si  tau(  31) = (  0.0833330  0.5833330  0.2500000  )
        32           Si  tau(  32) = (  0.2500000  0.5833330  0.0833330  )
        33           Si  tau(  33) = (  0.3333330  0.3333330  0.0000000  )
        34           Si  tau(  34) = (  0.3333330  0.5000000  0.1666670  )
        35           Si  tau(  35) = (  0.5000000  0.3333330  0.1666670  )
        36           Si  tau(  36) = (  0.5000000  0.5000000  0.0000000  )
        37           Si  tau(  37) = (  0.5833330  0.4166670  0.2500000  )
        38           Si  tau(  38) = (  0.4166670  0.4166670  0.0833330  )
        39           Si  tau(  39) = (  0.4166670  0.5833330  0.2500000  )
        40           Si  tau(  40) = (  0.5833330  0.5833330  0.0833330  )
        41           Si  tau(  41) = (  0.6666670  0.3333330  0.0000000  )
        42           Si  tau(  42) = (  0.6666670  0.5000000  0.1666670  )
        43           Si  tau(  43) = (  0.8333330  0.3333330  0.1666670  )
        44           Si  tau(  44) = (  0.8333330  0.5000000  0.0000000  )
        45           Si  tau(  45) = (  0.9166670  0.4166670  0.2500000  )
        46           Si  tau(  46) = (  0.7500000  0.4166670  0.0833330  )
        47           Si  tau(  47) = (  0.7500000  0.5833330  0.2500000  )
        48           Si  tau(  48) = (  0.9166670  0.5833330  0.0833330  )
        49           Si  tau(  49) = (  0.0000000  0.6666670  0.0000000  )
        50           Si  tau(  50) = (  0.0000000  0.8333330  0.1666670  )
        51           Si  tau(  51) = (  0.1666670  0.6666670  0.1666670  )
        52           Si  tau(  52) = (  0.1666670  0.8333330  0.0000000  )
        53           Si  tau(  53) = (  0.2500000  0.7500000  0.2500000  )
        54           Si  tau(  54) = (  0.0833330  0.7500000  0.0833330  )
        55           Si  tau(  55) = (  0.0833330  0.9166670  0.2500000  )
        56           Si  tau(  56) = (  0.2500000  0.9166670  0.0833330  )
        57           Si  tau(  57) = (  0.3333330  0.6666670  0.0000000  )
        58           Si  tau(  58) = (  0.3333330  0.8333330  0.1666670  )
        59           Si  tau(  59) = (  0.5000000  0.6666670  0.1666670  )
        60           Si  tau(  60) = (  0.5000000  0.8333330  0.0000000  )
        61           Si  tau(  61) = (  0.5833330  0.7500000  0.2500000  )
        62           Si  tau(  62) = (  0.4166670  0.7500000  0.0833330  )
        63           Si  tau(  63) = (  0.4166670  0.9166670  0.2500000  )
        64           Si  tau(  64) = (  0.5833330  0.9166670  0.0833330  )
        65           Si  tau(  65) = (  0.6666670  0.6666670  0.0000000  )
        66           Si  tau(  66) = (  0.6666670  0.8333330  0.1666670  )
        67           Si  tau(  67) = (  0.8333330  0.6666670  0.1666670  )
        68           Si  tau(  68) = (  0.8333330  0.8333330  0.0000000  )
        69           Si  tau(  69) = (  0.9166670  0.7500000  0.2500000  )
        70           Si  tau(  70) = (  0.7500000  0.7500000  0.0833330  )
        71           Si  tau(  71) = (  0.7500000  0.9166670  0.2500000  )
        72           Si  tau(  72) = (  0.9166670  0.9166670  0.0833330  )
        73           Si  tau(  73) = (  0.0000000  0.0000000  0.3333330  )
        74           Si  tau(  74) = (  0.0000000  0.1666670  0.5000000  )
        75           Si  tau(  75) = (  0.1666670  0.0000000  0.5000000  )
        76           Si  tau(  76) = (  0.1666670  0.1666670  0.3333330  )
        77           Si  tau(  77) = (  0.2500000  0.0833330  0.5833330  )
        78           Si  tau(  78) = (  0.0833330  0.0833330  0.4166670  )
        79           Si  tau(  79) = (  0.0833330  0.2500000  0.5833330  )
        80           Si  tau(  80) = (  0.2500000  0.2500000  0.4166670  )
        81           Si  tau(  81) = (  0.3333330  0.0000000  0.3333330  )
        82           Si  tau(  82) = (  0.3333330  0.1666670  0.5000000  )
        83           Si  tau(  83) = (  0.5000000  0.0000000  0.5000000  )
        84           Si  tau(  84) = (  0.5000000  0.1666670  0.3333330  )
        85           Si  tau(  85) = (  0.5833330  0.0833330  0.5833330  )
        86           Si  tau(  86) = (  0.4166670  0.0833330  0.4166670  )
        87           Si  tau(  87) = (  0.4166670  0.2500000  0.5833330  )
        88           Si  tau(  88) = (  0.5833330  0.2500000  0.4166670  )
        89           Si  tau(  89) = (  0.6666670  0.0000000  0.3333330  )
        90           Si  tau(  90) = (  0.6666670  0.1666670  0.5000000  )
        91           Si  tau(  91) = (  0.8333330  0.0000000  0.5000000  )
        92           Si  tau(  92) = (  0.8333330  0.1666670  0.3333330  )
        93           Si  tau(  93) = (  0.9166670  0.0833330  0.5833330  )
        94           Si  tau(  94) = (  0.7500000  0.0833330  0.4166670  )
        95           Si  tau(  95) = (  0.7500000  0.2500000  0.5833330  )
        96           Si  tau(  96) = (  0.9166670  0.2500000  0.4166670  )
        97           Si  tau(  97) = (  0.0000000  0.3333330  0.3333330  )
        98           Si  tau(  98) = (  0.0000000  0.5000000  0.5000000  )
        99           Si  tau(  99) = (  0.1666670  0.3333330  0.5000000  )
       100           Si  tau( 100) = (  0.1666670  0.5000000  0.3333330  )
       101           Si  tau( 101) = (  0.2500000  0.4166670  0.5833330  )
       102           Si  tau( 102) = (  0.0833330  0.4166670  0.4166670  )
       103           Si  tau( 103) = (  0.0833330  0.5833330  0.5833330  )
       104           Si  tau( 104) = (  0.2500000  0.5833330  0.4166670  )
       105           Si  tau( 105) = (  0.3333330  0.3333330  0.3333330  )
       106           Si  tau( 106) = (  0.3333330  0.5000000  0.5000000  )
       107           Si  tau( 107) = (  0.5000000  0.3333330  0.5000000  )
       108           Si  tau( 108) = (  0.5000000  0.5000000  0.3333330  )
       109           Si  tau( 109) = (  0.5833330  0.4166670  0.5833330  )
       110           Si  tau( 110) = (  0.4166670  0.4166670  0.4166670  )
       111           Si  tau( 111) = (  0.4166670  0.5833330  0.5833330  )
       112           Si  tau( 112) = (  0.5833330  0.5833330  0.4166670  )
       113           Si  tau( 113) = (  0.6666670  0.3333330  0.3333330  )
       114           Si  tau( 114) = (  0.6666670  0.5000000  0.5000000  )
       115           Si  tau( 115) = (  0.8333330  0.3333330  0.5000000  )
       116           Si  tau( 116) = (  0.8333330  0.5000000  0.3333330  )
       117           Si  tau( 117) = (  0.9166670  0.4166670  0.5833330  )
       118           Si  tau( 118) = (  0.7500000  0.4166670  0.4166670  )
       119           Si  tau( 119) = (  0.7500000  0.5833330  0.5833330  )
       120           Si  tau( 120) = (  0.9166670  0.5833330  0.4166670  )
       121           Si  tau( 121) = (  0.0000000  0.6666670  0.3333330  )
       122           Si  tau( 122) = (  0.0000000  0.8333330  0.5000000  )
       123           Si  tau( 123) = (  0.1666670  0.6666670  0.5000000  )
       124           Si  tau( 124) = (  0.1666670  0.8333330  0.3333330  )
       125           Si  tau( 125) = (  0.2500000  0.7500000  0.5833330  )
       126           Si  tau( 126) = (  0.0833330  0.7500000  0.4166670  )
       127           Si  tau( 127) = (  0.0833330  0.9166670  0.5833330  )
       128           Si  tau( 128) = (  0.2500000  0.9166670  0.4166670  )
       129           Si  tau( 129) = (  0.3333330  0.6666670  0.3333330  )
       130           Si  tau( 130) = (  0.3333330  0.8333330  0.5000000  )
       131           Si  tau( 131) = (  0.5000000  0.6666670  0.5000000  )
       132           Si  tau( 132) = (  0.5000000  0.8333330  0.3333330  )
       133           Si  tau( 133) = (  0.5833330  0.7500000  0.5833330  )
       134           Si  tau( 134) = (  0.4166670  0.7500000  0.4166670  )
       135           Si  tau( 135) = (  0.4166670  0.9166670  0.5833330  )
       136           Si  tau( 136) = (  0.5833330  0.9166670  0.4166670  )
       137           Si  tau( 137) = (  0.6666670  0.6666670  0.3333330  )
       138           Si  tau( 138) = (  0.6666670  0.8333330  0.5000000  )
       139           Si  tau( 139) = (  0.8333330  0.6666670  0.5000000  )
       140           Si  tau( 140) = (  0.8333330  0.8333330  0.3333330  )
       141           Si  tau( 141) = (  0.9166670  0.7500000  0.5833330  )
       142           Si  tau( 142) = (  0.7500000  0.7500000  0.4166670  )
       143           Si  tau( 143) = (  0.7500000  0.9166670  0.5833330  )
       144           Si  tau( 144) = (  0.9166670  0.9166670  0.4166670  )
       145           Si  tau( 145) = (  0.0000000  0.0000000  0.6666670  )
       146           Si  tau( 146) = (  0.0000000  0.1666670  0.8333330  )
       147           Si  tau( 147) = (  0.1666670  0.0000000  0.8333330  )
       148           Si  tau( 148) = (  0.1666670  0.1666670  0.6666670  )
       149           Si  tau( 149) = (  0.2500000  0.0833330  0.9166670  )
       150           Si  tau( 150) = (  0.0833330  0.0833330  0.7500000  )
       151           Si  tau( 151) = (  0.0833330  0.2500000  0.9166670  )
       152           Si  tau( 152) = (  0.2500000  0.2500000  0.7500000  )
       153           Si  tau( 153) = (  0.3333330  0.0000000  0.6666670  )
       154           Si  tau( 154) = (  0.3333330  0.1666670  0.8333330  )
       155           Si  tau( 155) = (  0.5000000  0.0000000  0.8333330  )
       156           Si  tau( 156) = (  0.5000000  0.1666670  0.6666670  )
       157           Si  tau( 157) = (  0.5833330  0.0833330  0.9166670  )
       158           Si  tau( 158) = (  0.4166670  0.0833330  0.7500000  )
       159           Si  tau( 159) = (  0.4166670  0.2500000  0.9166670  )
       160           Si  tau( 160) = (  0.5833330  0.2500000  0.7500000  )
       161           Si  tau( 161) = (  0.6666670  0.0000000  0.6666670  )
       162           Si  tau( 162) = (  0.6666670  0.1666670  0.8333330  )
       163           Si  tau( 163) = (  0.8333330  0.0000000  0.8333330  )
       164           Si  tau( 164) = (  0.8333330  0.1666670  0.6666670  )
       165           Si  tau( 165) = (  0.9166670  0.0833330  0.9166670  )
       166           Si  tau( 166) = (  0.7500000  0.0833330  0.7500000  )
       167           Si  tau( 167) = (  0.7500000  0.2500000  0.9166670  )
       168           Si  tau( 168) = (  0.9166670  0.2500000  0.7500000  )
       169           Si  tau( 169) = (  0.0000000  0.3333330  0.6666670  )
       170           Si  tau( 170) = (  0.0000000  0.5000000  0.8333330  )
       171           Si  tau( 171) = (  0.1666670  0.3333330  0.8333330  )
       172           Si  tau( 172) = (  0.1666670  0.5000000  0.6666670  )
       173           Si  tau( 173) = (  0.2500000  0.4166670  0.9166670  )
       174           Si  tau( 174) = (  0.0833330  0.4166670  0.7500000  )
       175           Si  tau( 175) = (  0.0833330  0.5833330  0.9166670  )
       176           Si  tau( 176) = (  0.2500000  0.5833330  0.7500000  )
       177           Si  tau( 177) = (  0.3333330  0.3333330  0.6666670  )
       178           Si  tau( 178) = (  0.3333330  0.5000000  0.8333330  )
       179           Si  tau( 179) = (  0.5000000  0.3333330  0.8333330  )
       180           Si  tau( 180) = (  0.5000000  0.5000000  0.6666670  )
       181           Si  tau( 181) = (  0.5833330  0.4166670  0.9166670  )
       182           Si  tau( 182) = (  0.4166670  0.4166670  0.7500000  )
       183           Si  tau( 183) = (  0.4166670  0.5833330  0.9166670  )
       184           Si  tau( 184) = (  0.5833330  0.5833330  0.7500000  )
       185           Si  tau( 185) = (  0.6666670  0.3333330  0.6666670  )
       186           Si  tau( 186) = (  0.6666670  0.5000000  0.8333330  )
       187           Si  tau( 187) = (  0.8333330  0.3333330  0.8333330  )
       188           Si  tau( 188) = (  0.8333330  0.5000000  0.6666670  )
       189           Si  tau( 189) = (  0.9166670  0.4166670  0.9166670  )
       190           Si  tau( 190) = (  0.7500000  0.4166670  0.7500000  )
       191           Si  tau( 191) = (  0.7500000  0.5833330  0.9166670  )
       192           Si  tau( 192) = (  0.9166670  0.5833330  0.7500000  )
       193           Si  tau( 193) = (  0.0000000  0.6666670  0.6666670  )
       194           Si  tau( 194) = (  0.0000000  0.8333330  0.8333330  )
       195           Si  tau( 195) = (  0.1666670  0.6666670  0.8333330  )
       196           Si  tau( 196) = (  0.1666670  0.8333330  0.6666670  )
       197           Si  tau( 197) = (  0.2500000  0.7500000  0.9166670  )
       198           Si  tau( 198) = (  0.0833330  0.7500000  0.7500000  )
       199           Si  tau( 199) = (  0.0833330  0.9166670  0.9166670  )
       200           Si  tau( 200) = (  0.2500000  0.9166670  0.7500000  )
       201           Si  tau( 201) = (  0.3333330  0.6666670  0.6666670  )
       202           Si  tau( 202) = (  0.3333330  0.8333330  0.8333330  )
       203           Si  tau( 203) = (  0.5000000  0.6666670  0.8333330  )
       204           Si  tau( 204) = (  0.5000000  0.8333330  0.6666670  )
       205           Si  tau( 205) = (  0.5833330  0.7500000  0.9166670  )
       206           Si  tau( 206) = (  0.4166670  0.7500000  0.7500000  )
       207           Si  tau( 207) = (  0.4166670  0.9166670  0.9166670  )
       208           Si  tau( 208) = (  0.5833330  0.9166670  0.7500000  )
       209           Si  tau( 209) = (  0.6666670  0.6666670  0.6666670  )
       210           Si  tau( 210) = (  0.6666670  0.8333330  0.8333330  )
       211           Si  tau( 211) = (  0.8333330  0.6666670  0.8333330  )
       212           Si  tau( 212) = (  0.8333330  0.8333330  0.6666670  )
       213           Si  tau( 213) = (  0.9166670  0.7500000  0.9166670  )
       214           Si  tau( 214) = (  0.7500000  0.7500000  0.7500000  )
       215           Si  tau( 215) = (  0.7500000  0.9166670  0.9166670  )
       216           Si  tau( 216) = (  0.9166670  0.9166670  0.7500000  )

     number of k points=     1  Gaussian smearing, width (Ry)=  0.0010
                       cart. coord. in units 2pi/alat
        k(    1) = (   0.0000000   0.0000000   0.0000000), wk =   2.0000000

                       cryst. coord.
        k(    1) = (   0.0000000   0.0000000   0.0000000), wk =   2.0000000

     Dense  grid:   646963 G-vectors     FFT dimensions: ( 108, 108, 108)

     Dynamical RAM for                 wfc:      39.99 MB

     Dynamical RAM for     wfc (w. buffer):      39.99 MB

     Dynamical RAM for           str. fact:       0.62 MB

     Dynamical RAM for           local pot:       0.00 MB

     Dynamical RAM for          nlocal pot:     183.41 MB

     Dynamical RAM for                qrad:       0.35 MB

     Dynamical RAM for          rho,v,vnew:       3.72 MB

     Dynamical RAM for               rhoin:       1.24 MB

     Dynamical RAM for            rho*nmix:       9.87 MB

     Dynamical RAM for           G-vectors:       2.62 MB

     Dynamical RAM for          h,s,v(r/c):       3.07 MB

     Dynamical RAM for          <psi|beta>:      18.78 MB

     Dynamical RAM for                 psi:      79.97 MB

     Dynamical RAM for                hpsi:      79.97 MB

     Dynamical RAM for      wfcinit/wfcrot:     806.97 MB

     Estimated static dynamical RAM per process >     236.30 MB

     Estimated max dynamical RAM per process >       1.03 GB

     Estimated total dynamical RAM >      16.46 GB

     Initial potential from superposition of free atoms

     starting charge     863.8477, renormalised to     864.0000
     Starting wfcs are 3456 randomized atomic wfcs

     total cpu time spent up to now is       68.6 secs

     Self-consistent Calculation

     iteration #  1     ecut=    30.00 Ry     beta= 0.50
     Davidson diagonalization with overlap

---- Real-time Memory Report at c_bands before calling an iterative solver
          1221 MiB given to the printing process from OS
             0 MiB allocation reported by mallinfo(arena+hblkhd)
        224007 MiB available memory on the node where the printing process lives
------------------
     ethr =  1.00E-02,  avg # of iterations =  2.0

     Threshold (ethr) on eigenvalues was too large:
     Diagonalizing with lowered threshold

     Davidson diagonalization with overlap

---- Real-time Memory Report at c_bands before calling an iterative solver
          1221 MiB given to the printing process from OS
             0 MiB allocation reported by mallinfo(arena+hblkhd)
        224169 MiB available memory on the node where the printing process lives
------------------
     ethr =  6.92E-04,  avg # of iterations =  1.0

     total cpu time spent up to now is      101.0 secs

     total energy              =   -1701.72445778 Ry
     estimated scf accuracy    <       6.20660929 Ry

     iteration #  2     ecut=    30.00 Ry     beta= 0.50
     Davidson diagonalization with overlap

---- Real-time Memory Report at c_bands before calling an iterative solver
          1221 MiB given to the printing process from OS
             0 MiB allocation reported by mallinfo(arena+hblkhd)
        224138 MiB available memory on the node where the printing process lives
------------------
     ethr =  7.18E-04,  avg # of iterations =  1.0

     total cpu time spent up to now is      116.2 secs

     total energy              =   -1701.69176867 Ry
     estimated scf accuracy    <       1.15273634 Ry

     iteration #  3     ecut=    30.00 Ry     beta= 0.50
     Davidson diagonalization with overlap

---- Real-time Memory Report at c_bands before calling an iterative solver
          1221 MiB given to the printing process from OS
             0 MiB allocation reported by mallinfo(arena+hblkhd)
        226059 MiB available memory on the node where the printing process lives
------------------
     ethr =  1.33E-04,  avg # of iterations =  1.0

     total cpu time spent up to now is      130.7 secs

     total energy              =   -1701.75813175 Ry
     estimated scf accuracy    <       0.01923560 Ry

     iteration #  4     ecut=    30.00 Ry     beta= 0.50
     Davidson diagonalization with overlap

---- Real-time Memory Report at c_bands before calling an iterative solver
          1221 MiB given to the printing process from OS
             0 MiB allocation reported by mallinfo(arena+hblkhd)
        225364 MiB available memory on the node where the printing process lives
------------------
     ethr =  2.23E-06,  avg # of iterations =  3.0

     total cpu time spent up to now is      156.2 secs

     total energy              =   -1701.76690010 Ry
     estimated scf accuracy    <       0.00054138 Ry

     iteration #  5     ecut=    30.00 Ry     beta= 0.50
     Davidson diagonalization with overlap

---- Real-time Memory Report at c_bands before calling an iterative solver
          1221 MiB given to the printing process from OS
             0 MiB allocation reported by mallinfo(arena+hblkhd)
        229427 MiB available memory on the node where the printing process lives
------------------
     ethr =  6.27E-08,  avg # of iterations =  5.0

     total cpu time spent up to now is      183.5 secs

     total energy              =   -1701.76727588 Ry
     estimated scf accuracy    <       0.00020533 Ry

     iteration #  6     ecut=    30.00 Ry     beta= 0.50
     Davidson diagonalization with overlap

---- Real-time Memory Report at c_bands before calling an iterative solver
          1221 MiB given to the printing process from OS
             0 MiB allocation reported by mallinfo(arena+hblkhd)
        229605 MiB available memory on the node where the printing process lives
------------------
     ethr =  2.38E-08,  avg # of iterations =  2.0

     total cpu time spent up to now is      201.5 secs

     total energy              =   -1701.76730273 Ry
     estimated scf accuracy    <       0.00003498 Ry

     iteration #  7     ecut=    30.00 Ry     beta= 0.50
     Davidson diagonalization with overlap

---- Real-time Memory Report at c_bands before calling an iterative solver
          1221 MiB given to the printing process from OS
             0 MiB allocation reported by mallinfo(arena+hblkhd)
        229625 MiB available memory on the node where the printing process lives
------------------
     ethr =  4.05E-09,  avg # of iterations =  3.0

     total cpu time spent up to now is      223.2 secs

     total energy              =   -1701.76730895 Ry
     estimated scf accuracy    <       0.00001823 Ry

     iteration #  8     ecut=    30.00 Ry     beta= 0.50
     Davidson diagonalization with overlap

---- Real-time Memory Report at c_bands before calling an iterative solver
          1221 MiB given to the printing process from OS
             0 MiB allocation reported by mallinfo(arena+hblkhd)
        229647 MiB available memory on the node where the printing process lives
------------------
     ethr =  2.11E-09,  avg # of iterations =  3.0

     total cpu time spent up to now is      240.7 secs

     total energy              =   -1701.76730866 Ry
     estimated scf accuracy    <       0.00001429 Ry

     iteration #  9     ecut=    30.00 Ry     beta= 0.50
     Davidson diagonalization with overlap

---- Real-time Memory Report at c_bands before calling an iterative solver
          1221 MiB given to the printing process from OS
             0 MiB allocation reported by mallinfo(arena+hblkhd)
        229609 MiB available memory on the node where the printing process lives
------------------
     ethr =  1.65E-09,  avg # of iterations =  1.0

     total cpu time spent up to now is      254.9 secs

     total energy              =   -1701.76730761 Ry
     estimated scf accuracy    <       0.00000504 Ry

     iteration # 10     ecut=    30.00 Ry     beta= 0.50
     Davidson diagonalization with overlap

---- Real-time Memory Report at c_bands before calling an iterative solver
          1221 MiB given to the printing process from OS
             0 MiB allocation reported by mallinfo(arena+hblkhd)
        229739 MiB available memory on the node where the printing process lives
------------------
     ethr =  5.83E-10,  avg # of iterations =  2.0

     total cpu time spent up to now is      271.6 secs

     total energy              =   -1701.76730799 Ry
     estimated scf accuracy    <       0.00000011 Ry

     iteration # 11     ecut=    30.00 Ry     beta= 0.50
     Davidson diagonalization with overlap

---- Real-time Memory Report at c_bands before calling an iterative solver
          1221 MiB given to the printing process from OS
             0 MiB allocation reported by mallinfo(arena+hblkhd)
        229688 MiB available memory on the node where the printing process lives
------------------
     ethr =  1.22E-11,  avg # of iterations =  4.0

     total cpu time spent up to now is      295.5 secs

     total energy              =   -1701.76730803 Ry
     estimated scf accuracy    <       0.00000004 Ry

     iteration # 12     ecut=    30.00 Ry     beta= 0.50
     Davidson diagonalization with overlap

---- Real-time Memory Report at c_bands before calling an iterative solver
          1221 MiB given to the printing process from OS
             0 MiB allocation reported by mallinfo(arena+hblkhd)
        227411 MiB available memory on the node where the printing process lives
------------------
     ethr =  4.37E-12,  avg # of iterations =  2.0

     total cpu time spent up to now is      318.8 secs

     End of self-consistent calculation

          k = 0.0000 0.0000 0.0000 ( 80797 PWs)   bands (ev):

    -5.7298  -5.2444  -5.2444  -5.2444  -5.2444  -5.2444  -5.2444  -4.7780
    -4.7780  -4.7780  -4.7780  -4.7780  -4.7780  -4.7780  -4.7780  -4.7780
    -4.7780  -4.7780  -4.7780  -4.3498  -4.3498  -4.3498  -4.3498  -4.3498
    -4.3498  -4.3498  -4.3498  -3.8211  -3.8211  -3.8211  -3.8210  -3.8210
    -3.8210  -3.4354  -3.4354  -3.4354  -3.4354  -3.4354  -3.4354  -3.4354
    -3.4354  -3.4354  -3.4354  -3.4354  -3.4354  -3.4353  -3.4353  -3.4353
    -3.4353  -3.4353  -3.4353  -3.4353  -3.4353  -3.4353  -3.4353  -3.4353
    -3.4353  -3.2330  -3.2330  -3.2330  -3.2330  -3.2330  -3.2330  -3.2330
    -3.2330  -3.2330  -3.2330  -3.2330  -3.2330  -3.2330  -3.2330  -3.2330
    -3.2330  -3.2330  -3.2330  -3.2330  -3.2330  -3.2330  -3.2330  -3.2330
    -3.2330  -2.4581  -2.4581  -2.4581  -2.4581  -2.4581  -2.4581  -2.4581
    -2.4581  -2.4581  -2.4580  -2.4580  -2.4580  -1.5781  -1.5781  -1.5781
    -1.5781  -1.5781  -1.5781  -1.4578  -1.4578  -1.4578  -1.4578  -1.4578
    -1.4578  -1.4578  -1.4578  -1.4578  -1.4578  -1.4578  -1.4578  -1.4578
    -1.4578  -1.4578  -1.4578  -1.4578  -1.4578  -1.4578  -1.4578  -1.4578
    -1.4578  -1.4578  -1.4578  -0.5318  -0.5318  -0.5318  -0.5318  -0.5318
    -0.5318  -0.5318  -0.5318  -0.5318  -0.5318  -0.5318  -0.5318  -0.3693
    -0.3693  -0.3693  -0.3693  -0.3693  -0.3693  -0.3693  -0.3693  -0.3693
    -0.3693  -0.3693  -0.3693  -0.3693  -0.3693  -0.3693  -0.3693  -0.3693
    -0.3693  -0.3693  -0.3693  -0.3693  -0.3693  -0.3693  -0.3693   0.5953
     0.5953   0.5953   0.5953   0.5953   0.5953   0.5953   0.5953   0.5953
     0.5953   0.5953   0.5953   0.5953   0.5953   0.5953   0.5953   0.5953
     0.5953   0.5953   0.5953   0.5953   0.5953   0.5953   0.5953   0.9027
     0.9028   0.9028   0.9028   0.9028   0.9028   0.9028   0.9028   1.2279
     1.2279   1.2279   1.2279   1.2279   1.2279   1.8228   1.8228   1.8228
     1.8228   1.8228   1.8228   1.8228   1.8228   1.8228   1.8228   1.8228
     1.8228   2.5208   2.5208   2.5208   2.5208   2.5208   2.5208   2.5208
     2.5208   2.5208   2.5208   2.5208   2.5208   2.5910   2.5910   2.5910
     2.5910   2.5910   2.5910   2.5910   2.5910   2.5910   2.5910   2.5910
     2.5910   2.5910   2.5910   2.5910   2.5910   2.5910   2.5910   2.5910
     2.5910   2.5910   2.5910   2.5910   2.5910   2.6668   2.6668   2.6668
     2.6668   2.6668   2.6668   2.6668   2.6668   2.6668   2.6668   2.6668
     2.6668   2.6668   2.6668   2.6668   2.6668   2.6668   2.6668   2.6668
     2.6668   2.6668   2.6668   2.6668   2.6668   3.3822   3.3822   3.3822
     3.3822   3.3822   3.3822   3.4599   3.4599   3.4599   3.4599   3.4599
     3.4599   3.4599   3.4599   3.4599   3.4599   3.4599   3.4599   3.4600
     3.4600   3.4600   3.4600   3.4600   3.4600   3.4600   3.4600   3.4600
     3.4600   3.4600   3.4600   3.8176   3.8176   3.8176   3.8176   3.8176
     3.8176   3.8176   3.8176   3.8176   3.8176   3.8176   3.8176   3.8248
     3.8248   3.8248   3.8248   3.8248   3.8248   3.8248   3.8248   3.8248
     3.8248   3.8248   3.8248   3.9416   3.9416   3.9416   3.9416   3.9416
     3.9416   3.9416   3.9416   3.9416   3.9416   3.9416   3.9416   3.9416
     3.9416   3.9416   3.9416   3.9416   3.9416   3.9416   3.9416   3.9416
     3.9416   3.9416   3.9416   4.1235   4.1235   4.1235   4.1235   4.1235
     4.1235   4.1235   4.1235   4.1235   4.1235   4.1235   4.1235   4.1982
     4.1982   4.1982   4.1982   4.1982   4.1982   4.4592   4.4592   4.4592
     4.4592   4.4592   4.4592   4.4592   4.4592   4.4592   4.4592   4.4592
     4.4592   4.4592   4.4592   4.4592   4.4592   4.4592   4.4592   4.4593
     4.4593   4.4593   4.4593   4.4593   4.4593   5.0436   5.0436   5.0436
     5.0436   5.0436   5.0436   5.0437   5.0437   5.0437   5.0437   5.0437
     5.0437   5.2352   5.2352   5.2352   5.2352   5.2352   5.2352   5.2352
     5.2352   5.2353   5.2353   5.2353   5.2353   5.2353   5.2353   5.2353
     5.2353   5.6710   5.6710   5.6710   5.6710   5.6710   5.6710   5.6710
     5.6710   5.6710   5.6710   5.6710   5.6710   6.2364   6.2364   6.2364
     6.9545   6.9545   6.9545   6.9545   6.9545   6.9545   6.9706   6.9706
     6.9706   6.9706   6.9706   6.9706   7.8088   7.8088   7.8088   7.8089
     7.8089   7.8089   7.8089   7.8089   7.8089   7.8089   7.8089   7.8089
     7.9469   7.9469   7.9469   7.9469   7.9469   7.9469   7.9873   7.9873
     7.9873   7.9873   7.9873   7.9873   7.9873   7.9873   8.2353   8.2353
     8.2353   8.2354   8.2354   8.2354   8.2802   8.2802   8.2802   8.2802
     8.2802   8.2802   8.2802   8.2802   8.2802   8.2802   8.2802   8.2802
     8.2802   8.2802   8.2802   8.2802   8.2802   8.2802   8.2802   8.2802
     8.2802   8.2802   8.2802   8.2802   8.8061   8.8061   8.8061   8.9899
     8.9899   8.9900   8.9900   8.9900   8.9900   8.9900   8.9900   8.9900
     8.9900   8.9900   8.9900   8.9900   8.9900   8.9900

     occupation numbers 
     1.0000   1.0000   1.0000   1.0000   1.0000   1.0000   1.0000   1.0000
     1.0000   1.0000   1.0000   1.0000   1.0000   1.0000   1.0000   1.0000
     1.0000   1.0000   1.0000   1.0000   1.0000   1.0000   1.0000   1.0000
     1.0000   1.0000   1.0000   1.0000   1.0000   1.0000   1.0000   1.0000
     1.0000   1.0000   1.0000   1.0000   1.0000   1.0000   1.0000   1.0000
     1.0000   1.0000   1.0000   1.0000   1.0000   1.0000   1.0000   1.0000
     1.0000   1.0000   1.0000   1.0000   1.0000   1.0000   1.0000   1.0000
     1.0000   1.0000   1.0000   1.0000   1.0000   1.0000   1.0000   1.0000
     1.0000   1.0000   1.0000   1.0000   1.0000   1.0000   1.0000   1.0000
     1.0000   1.0000   1.0000   1.0000   1.0000   1.0000   1.0000   1.0000
     1.0000   1.0000   1.0000   1.0000   1.0000   1.0000   1.0000   1.0000
     1.0000   1.0000   1.0000   1.0000   1.0000   1.0000   1.0000   1.0000
     1.0000   1.0000   1.0000   1.0000   1.0000   1.0000   1.0000   1.0000
     1.0000   1.0000   1.0000   1.0000   1.0000   1.0000   1.0000   1.0000
     1.0000   1.0000   1.0000   1.0000   1.0000   1.0000   1.0000   1.0000
     1.0000   1.0000   1.0000   1.0000   1.0000   1.0000   1.0000   1.0000
     1.0000   1.0000   1.0000   1.0000   1.0000   1.0000   1.0000   1.0000
     1.0000   1.0000   1.0000   1.0000   1.0000   1.0000   1.0000   1.0000
     1.0000   1.0000   1.0000   1.0000   1.0000   1.0000   1.0000   1.0000
     1.0000   1.0000   1.0000   1.0000   1.0000   1.0000   1.0000   1.0000
     1.0000   1.0000   1.0000   1.0000   1.0000   1.0000   1.0000   1.0000
     1.0000   1.0000   1.0000   1.0000   1.0000   1.0000   1.0000   1.0000
     1.0000   1.0000   1.0000   1.0000   1.0000   1.0000   1.0000   1.0000
     1.0000   1.0000   1.0000   1.0000   1.0000   1.0000   1.0000   1.0000
     1.0000   1.0000   1.0000   1.0000   1.0000   1.0000   1.0000   1.0000
     1.0000   1.0000   1.0000   1.0000   1.0000   1.0000   1.0000   1.0000
     1.0000   1.0000   1.0000   1.0000   1.0000   1.0000   1.0000   1.0000
     1.0000   1.0000   1.0000   1.0000   1.0000   1.0000   1.0000   1.0000
     1.0000   1.0000   1.0000   1.0000   1.0000   1.0000   1.0000   1.0000
     1.0000   1.0000   1.0000   1.0000   1.0000   1.0000   1.0000   1.0000
     1.0000   1.0000   1.0000   1.0000   1.0000   1.0000   1.0000   1.0000
     1.0000   1.0000   1.0000   1.0000   1.0000   1.0000   1.0000   1.0000
     1.0000   1.0000   1.0000   1.0000   1.0000   1.0000   1.0000   1.0000
     1.0000   1.0000   1.0000   1.0000   1.0000   1.0000   1.0000   1.0000
     1.0000   1.0000   1.0000   1.0000   1.0000   1.0000   1.0000   1.0000
     1.0000   1.0000   1.0000   1.0000   1.0000   1.0000   1.0000   1.0000
     1.0000   1.0000   1.0000   1.0000   1.0000   1.0000   1.0000   1.0000
     1.0000   1.0000   1.0000   1.0000   1.0000   1.0000   1.0000   1.0000
     1.0000   1.0000   1.0000   1.0000   1.0000   1.0000   1.0000   1.0000
     1.0000   1.0000   1.0000   1.0000   1.0000   1.0000   1.0000   1.0000
     1.0000   1.0000   1.0000   1.0000   1.0000   1.0000   1.0000   1.0000
     1.0000   1.0000   1.0000   1.0000   1.0000   1.0000   1.0000   1.0000
     1.0000   1.0000   1.0000   1.0000   1.0000   1.0000   1.0000   1.0000
     1.0000   1.0000   1.0000   1.0000   1.0000   1.0000   1.0000   1.0000
     1.0000   1.0000   1.0000   1.0000   1.0000   1.0000   1.0000   1.0000
     1.0000   1.0000   1.0000   1.0000   1.0000   1.0000   1.0000   1.0000
     1.0000   1.0000   1.0000   1.0000   1.0000   1.0000   1.0000   1.0000
     1.0000   1.0000   1.0000   1.0000   1.0000   1.0000   1.0000   1.0000
     1.0000   1.0000   1.0000   1.0000   1.0000   1.0000   1.0000   1.0000
     1.0000   1.0000   1.0000   1.0000   1.0000   1.0000   1.0000   1.0000
     1.0000   1.0000   1.0000   1.0000   1.0000   1.0000   1.0000   1.0000
     1.0000   1.0000   1.0000   1.0000   1.0000   1.0000   1.0000   1.0000
     1.0000   1.0000   1.0000   1.0000   1.0000   1.0000   1.0000   1.0000
     1.0000   1.0000   1.0000   1.0000   1.0000   1.0000   1.0000   1.0000
     0.0000   0.0000   0.0000   0.0000   0.0000   0.0000   0.0000   0.0000
     0.0000   0.0000   0.0000   0.0000   0.0000   0.0000   0.0000   0.0000
     0.0000   0.0000   0.0000   0.0000   0.0000   0.0000   0.0000   0.0000
     0.0000   0.0000   0.0000   0.0000   0.0000   0.0000   0.0000   0.0000
     0.0000   0.0000   0.0000   0.0000   0.0000   0.0000   0.0000   0.0000
     0.0000   0.0000   0.0000   0.0000   0.0000   0.0000   0.0000   0.0000
     0.0000   0.0000   0.0000   0.0000   0.0000   0.0000   0.0000   0.0000
     0.0000   0.0000   0.0000   0.0000   0.0000   0.0000   0.0000   0.0000
     0.0000   0.0000   0.0000   0.0000   0.0000   0.0000   0.0000   0.0000
     0.0000   0.0000   0.0000   0.0000   0.0000   0.0000   0.0000   0.0000
     0.0000   0.0000   0.0000   0.0000   0.0000   0.0000

     the Fermi energy is     6.3151 ev

!    total energy              =   -1701.76730803 Ry
     estimated scf accuracy    <          2.9E-09 Ry
     smearing contrib. (-TS)   =      -0.00000000 Ry
     internal energy E=F+TS    =   -1701.76730803 Ry

     The total energy is F=E-TS. E is the sum of the following terms:
     one-electron contribution =     514.43563769 Ry
     hartree contribution      =     118.70744052 Ry
     xc contribution           =    -520.62518516 Ry
     ewald contribution        =   -1814.28520109 Ry

     convergence has been achieved in  12 iterations

     Writing all to output data dir ./SI.save/
 
     init_run     :     65.66s CPU     68.31s WALL (       1 calls)
     electrons    :    246.84s CPU    250.31s WALL (       1 calls)

     Called by init_run:
     wfcinit      :     65.15s CPU     67.42s WALL (       1 calls)
     wfcinit:atom :      0.14s CPU      0.28s WALL (       1 calls)
     wfcinit:wfcr :     64.29s CPU     66.21s WALL (       1 calls)
     potinit      :      0.13s CPU      0.35s WALL (       1 calls)
     hinit0       :      0.12s CPU      0.18s WALL (       1 calls)

     Called by electrons:
     c_bands      :    234.58s CPU    237.59s WALL (      13 calls)
     sum_band     :     10.81s CPU     10.99s WALL (      13 calls)
     v_of_rho     :      1.23s CPU      1.64s WALL (      13 calls)
     v_h          :      0.08s CPU      0.16s WALL (      13 calls)
     v_xc         :      1.15s CPU      1.48s WALL (      13 calls)
     mix_rho      :      0.26s CPU      0.27s WALL (      13 calls)

     Called by c_bands:
     init_us_2    :      3.07s CPU      3.24s WALL (      27 calls)
     init_us_2:cp :      3.07s CPU      3.24s WALL (      27 calls)
     cegterg      :    229.80s CPU    232.76s WALL (      13 calls)

     Called by sum_band:
     sum_band:wei :      0.00s CPU      0.00s WALL (      13 calls)
     sum_band:loo :     10.56s CPU     10.64s WALL (      13 calls)
     sum_band:buf :      0.00s CPU      0.00s WALL (      13 calls)
     sum_band:ini :      1.52s CPU      1.55s WALL (      13 calls)

     Called by *egterg:
     cdiaghg      :     19.27s CPU     20.37s WALL (      42 calls)
     cegterg:over :     22.47s CPU     22.62s WALL (      30 calls)
     cegterg:upda :     19.07s CPU     19.37s WALL (      30 calls)
     cegterg:last :     29.94s CPU     30.26s WALL (      24 calls)
     cdiaghg:chol :      1.71s CPU      1.75s WALL (      42 calls)
     cdiaghg:inve :      2.00s CPU      2.02s WALL (      42 calls)
     cdiaghg:para :      4.25s CPU      4.73s WALL (      84 calls)
     h_psi        :    170.55s CPU    172.16s WALL (      44 calls)
     g_psi        :      0.30s CPU      0.30s WALL (      30 calls)

     Called by h_psi:
     h_psi:calbec :     61.70s CPU     62.07s WALL (      44 calls)
     vloc_psi     :     51.32s CPU     51.69s WALL (      44 calls)
     add_vuspsi   :     57.05s CPU     57.28s WALL (      44 calls)

     General routines
     calbec       :     61.70s CPU     62.07s WALL (      44 calls)
     fft          :      0.93s CPU      1.43s WALL (     130 calls)
     ffts         :      0.04s CPU      0.04s WALL (      13 calls)
     fftw         :     55.67s CPU     56.07s WALL (   46052 calls)
 
     Parallel routines
 
     PWSCF        :   5m17.30s CPU   5m24.87s WALL

 
   This run was terminated on:  10: 8:53  17Mar2023            

=------------------------------------------------------------------------------=
   JOB DONE.
=------------------------------------------------------------------------------=
