 DBCSR| CPU Multiplication driver                                            SMM
 DBCSR| Multrec recursion limit                                              512
 DBCSR| Multiplication stack size                                           1000
 DBCSR| Maximum elements for images                                    UNLIMITED
 DBCSR| Multiplicative factor virtual images                                   1
 DBCSR| Use multiplication densification                                       T
 DBCSR| Multiplication size stacks                                             3
 DBCSR| Use memory pool for CPU allocation                                     F
 DBCSR| Number of 3D layers                                               SINGLE
 DBCSR| Use MPI memory allocation                                              F
 DBCSR| Use RMA algorithm                                                      F
 DBCSR| Use Communication thread                                               T
 DBCSR| Communication thread load                                             87
 DBCSR| MPI: My node id                                                        0
 DBCSR| MPI: Number of nodes                                                  24
 DBCSR| OMP: Current number of threads                                         1
 DBCSR| OMP: Max number of threads                                             1
 DBCSR| Split modifier for TAS multiplication algorithm                  1.0E+00


  **** **** ******  **  PROGRAM STARTED AT               2023-04-15 12:08:15.014
 ***** ** ***  *** **   PROGRAM STARTED ON                              nid01929
 **    ****   ******    PROGRAM STARTED BY                               ramador
 ***** **    ** ** **   PROGRAM PROCESS ID                                 32062
  **** **  *******  **  PROGRAM STARTED IN /scratch/snx3000/ramador/MMM_2023/ex7
                                           /ts

 CP2K| version string:                                          CP2K version 9.1
 CP2K| source code revision number:                                  git:d8d7100
 CP2K| cp2kflags: omp libint fftw3 libxc elpa parallel mpi3 scalapack smm_dnn sm
 CP2K|            m max_contr=4 plumed2 spglib sirius libvori libbqb
 CP2K| is freely available from                            https://www.cp2k.org/
 CP2K| Program compiled at                          Mon 21 Feb 15:39:03 CET 2022
 CP2K| Program compiled on                                              daint102
 CP2K| Program compiled for                                     CP2K-9.1-CrayGNU
 CP2K| Data directory path    /apps/daint/UES/jenkins/7.0.UP03/21.09/daint-mc/so
 CP2K| Input file name                                                    ts.inp

 GLOBAL| Force Environment number                                              1
 GLOBAL| Basis set file name                                        BASIS_MOLOPT
 GLOBAL| Potential file name                                      GTH_POTENTIALS
 GLOBAL| MM Potential file name                                     MM_POTENTIAL
 GLOBAL| Coordinate file name                                             ts.xyz
 GLOBAL| Method name                                                        CP2K
 GLOBAL| Project name                                                         ts
 GLOBAL| Run type                                                         ENERGY
 GLOBAL| FFT library                                                       FFTW3
 GLOBAL| Diagonalization library                                            ELPA
 GLOBAL| Minimum number of eigenvectors for ELPA usage                        16
 GLOBAL| Orthonormality check for eigenvectors                          DISABLED
 GLOBAL| Matrix multiplication library                                 ScaLAPACK
 GLOBAL| All-to-all communication in single precision                          F
 GLOBAL| FFTs using library dependent lengths                                  F
 GLOBAL| Grid backend                                                       AUTO
 GLOBAL| Global print level                                                  LOW
 GLOBAL| MPI I/O enabled                                                       T
 GLOBAL| Total number of message passing processes                            24
 GLOBAL| Number of threads for this process                                    1
 GLOBAL| This output is from process                                           0
 GLOBAL| Stack size for threads created by OpenMP (OMP_STACKSIZE)        default
 GLOBAL| CPU model name                Intel(R) Xeon(R) CPU E5-2690 v3 @ 2.60GHz
 GLOBAL| CPUID                                                              1002

 MEMORY| system memory details [Kb]
 MEMORY|                        rank 0           min           max       average
 MEMORY| MemTotal             65740148      65740148      65740148      65740148
 MEMORY| MemFree              60862232      60862232      61002260      60932246
 MEMORY| Buffers                  8688          7272          8688          7980
 MEMORY| Cached                1928364       1866592       1928364       1897478
 MEMORY| Slab                   222976        214720        222976        218844
 MEMORY| SReclaimable            52292         48192         52292         50242
 MEMORY| MemLikelyFree        62851576      62851576      62924316      62887946


 GENERATE|  Preliminary Number of Bonds generated:                             0
 GENERATE|  Achieved consistency in connectivity generation.

 *******************************************************************************
 *******************************************************************************
 **                                                                           **
 **     #####                         ##              ##                      **
 **    ##   ##            ##          ##              ##                      **
 **   ##     ##                       ##            ######                    **
 **   ##     ##  ##   ##  ##   #####  ##  ##   ####   ##    #####    #####    **
 **   ##     ##  ##   ##  ##  ##      ## ##   ##      ##   ##   ##  ##   ##   **
 **   ##  ## ##  ##   ##  ##  ##      ####     ###    ##   ######   ######    **
 **    ##  ###   ##   ##  ##  ##      ## ##      ##   ##   ##       ##        **
 **     #######   #####   ##   #####  ##  ##  ####    ##    #####   ##        **
 **           ##                                                    ##        **
 **                                                                           **
 **                                                ... make the atoms dance   **
 **                                                                           **
 **            Copyright (C) by CP2K developers group (2000-2021)             **
 **                      J. Chem. Phys. 152, 194103 (2020)                    **
 **                                                                           **
 *******************************************************************************


 TOTAL NUMBERS AND MAXIMUM NUMBERS

  Total number of            - Atomic kinds:                                   3
                             - Atoms:                                          9
                             - Shell sets:                                     9
                             - Shells:                                        45
                             - Primitive Cartesian functions:                 63
                             - Cartesian basis functions:                     90
                             - Spherical basis functions:                     87

  Maximum angular momentum of- Orbital basis functions:                        2
                             - Local part of the GTH pseudopotential:          2
                             - Non-local part of the GTH pseudopotential:      0


 SCF PARAMETERS         Density guess:                                   RESTART
                        --------------------------------------------------------
                        max_scf:                                              50
                        max_scf_history:                                       0
                        max_diis:                                              4
                        --------------------------------------------------------
                        eps_scf:                                        1.00E-04
                        eps_scf_history:                                0.00E+00
                        eps_diis:                                       1.00E-01
                        eps_eigval:                                     1.00E-05
                        --------------------------------------------------------
                        level_shift [a.u.]:                                 0.00
                        --------------------------------------------------------
                        Outer loop SCF in use 
                        No variables optimised in outer loop
                        eps_scf                                         1.00E-04
                        max_scf                                              500
                        No outer loop optimization
                        step_size                                       5.00E-01

 PW_GRID| Information for grid number                                          1
 PW_GRID| Grid distributed over                                    24 processors
 PW_GRID| Real space group dimensions                                    24    1
 PW_GRID| the grid is blocked:                                                NO
 PW_GRID| Cutoff [a.u.]                                                    200.0
 PW_GRID| spherical cutoff:                                                   NO
 PW_GRID|   Bounds   1            -96      95                Points:         192
 PW_GRID|   Bounds   2            -96      95                Points:         192
 PW_GRID|   Bounds   3            -96      95                Points:         192
 PW_GRID| Volume element (a.u.^3)  0.3218E-02     Volume (a.u.^3)     22775.6292
 PW_GRID| Grid span                                                    FULLSPACE
 PW_GRID|   Distribution                         Average         Max         Min
 PW_GRID|   G-Vectors                           294912.0      294912      294912
 PW_GRID|   G-Rays                                1536.0        1536        1536
 PW_GRID|   Real Space Points                   294912.0      294912      294912

 PW_GRID| Information for grid number                                          2
 PW_GRID| Number of the reference grid                                         1
 PW_GRID| Grid distributed over                                    24 processors
 PW_GRID| Real space group dimensions                                    24    1
 PW_GRID| the grid is blocked:                                                NO
 PW_GRID| Cutoff [a.u.]                                                     66.7
 PW_GRID| spherical cutoff:                                                   NO
 PW_GRID|   Bounds   1            -54      53                Points:         108
 PW_GRID|   Bounds   2            -54      53                Points:         108
 PW_GRID|   Bounds   3            -54      53                Points:         108
 PW_GRID| Volume element (a.u.^3)  0.1808E-01     Volume (a.u.^3)     22775.6292
 PW_GRID| Grid span                                                    FULLSPACE
 PW_GRID|   Distribution                         Average         Max         Min
 PW_GRID|   G-Vectors                            52488.0       52704       52380
 PW_GRID|   G-Rays                                 486.0         488         485
 PW_GRID|   Real Space Points                    52488.0       58320       46656

 PW_GRID| Information for grid number                                          3
 PW_GRID| Number of the reference grid                                         1
 PW_GRID| Grid distributed over                                    24 processors
 PW_GRID| Real space group dimensions                                    24    1
 PW_GRID| the grid is blocked:                                                NO
 PW_GRID| Cutoff [a.u.]                                                     22.2
 PW_GRID| spherical cutoff:                                                   NO
 PW_GRID|   Bounds   1            -32      31                Points:          64
 PW_GRID|   Bounds   2            -32      31                Points:          64
 PW_GRID|   Bounds   3            -32      31                Points:          64
 PW_GRID| Volume element (a.u.^3)  0.8688E-01     Volume (a.u.^3)     22775.6292
 PW_GRID| Grid span                                                    FULLSPACE
 PW_GRID|   Distribution                         Average         Max         Min
 PW_GRID|   G-Vectors                            10922.7       10944       10880
 PW_GRID|   G-Rays                                 170.7         171         170
 PW_GRID|   Real Space Points                    10922.7       12288        8192

 PW_GRID| Information for grid number                                          4
 PW_GRID| Number of the reference grid                                         1
 PW_GRID| Grid distributed over                                    24 processors
 PW_GRID| Real space group dimensions                                    24    1
 PW_GRID| the grid is blocked:                                                NO
 PW_GRID| Cutoff [a.u.]                                                      7.4
 PW_GRID| spherical cutoff:                                                   NO
 PW_GRID|   Bounds   1            -18      17                Points:          36
 PW_GRID|   Bounds   2            -18      17                Points:          36
 PW_GRID|   Bounds   3            -18      17                Points:          36
 PW_GRID| Volume element (a.u.^3)  0.4882         Volume (a.u.^3)     22775.6292
 PW_GRID| Grid span                                                    FULLSPACE
 PW_GRID|   Distribution                         Average         Max         Min
 PW_GRID|   G-Vectors                             1944.0        2016        1908
 PW_GRID|   G-Rays                                  54.0          56          53
 PW_GRID|   Real Space Points                     1944.0        2592        1296

 POISSON| Solver                                                         WAVELET
 POISSON| Wavelet| Scaling function                                           40
 POISSON| Periodicity                                                       NONE

 RS_GRID| Information for grid number                                          1
 RS_GRID|   Bounds   1            -96      95                Points:         192
 RS_GRID|   Bounds   2            -96      95                Points:         192
 RS_GRID|   Bounds   3            -96      95                Points:         192
 RS_GRID| Real space distribution over                                  4 groups
 RS_GRID| Real space distribution along direction                              2
 RS_GRID| Border size                                                         21
 RS_GRID| Real space distribution over                                  6 groups
 RS_GRID| Real space distribution along direction                              3
 RS_GRID| Border size                                                         21
 RS_GRID|   Distribution                         Average         Max         Min
 RS_GRID|   Planes                                  90.0          90          90
 RS_GRID|   Distribution                         Average         Max         Min
 RS_GRID|   Planes                                  74.0          74          74

 RS_GRID| Information for grid number                                          2
 RS_GRID|   Bounds   1            -54      53                Points:         108
 RS_GRID|   Bounds   2            -54      53                Points:         108
 RS_GRID|   Bounds   3            -54      53                Points:         108
 RS_GRID| Real space distribution over                                  4 groups
 RS_GRID| Real space distribution along direction                              2
 RS_GRID| Border size                                                         22
 RS_GRID| Real space distribution over                                  6 groups
 RS_GRID| Real space distribution along direction                              3
 RS_GRID| Border size                                                         22
 RS_GRID|   Distribution                         Average         Max         Min
 RS_GRID|   Planes                                  71.0          71          71
 RS_GRID|   Distribution                         Average         Max         Min
 RS_GRID|   Planes                                  62.0          62          62

 RS_GRID| Information for grid number                                          3
 RS_GRID|   Bounds   1            -32      31                Points:          64
 RS_GRID|   Bounds   2            -32      31                Points:          64
 RS_GRID|   Bounds   3            -32      31                Points:          64
 RS_GRID| Real space fully replicated
 RS_GRID| Group size                                                           1

 RS_GRID| Information for grid number                                          4
 RS_GRID|   Bounds   1            -18      17                Points:          36
 RS_GRID|   Bounds   2            -18      17                Points:          36
 RS_GRID|   Bounds   3            -18      17                Points:          36
 RS_GRID| Real space fully replicated
 RS_GRID| Group size                                                           1

 Number of electrons:                                                         20
 Number of occupied orbitals:                                                 10
 Number of molecular orbitals:                                                10

 Number of orbital functions:                                                 87
 Number of independent orbital functions:                                     87

 Extrapolation method: initial_guess

 *** WARNING in qs_initial_guess.F:309 :: User requested to restart the   ***
 *** wavefunction from the file named: ts-RESTART.wfn. This file does not ***
 *** exist. Please check the existence of the file or change properly the ***
 *** value of the keyword WFN_RESTART_FILE_NAME. Calculation continues    ***
 *** using ATOMIC GUESS.                                                  ***



 SCF WAVEFUNCTION OPTIMIZATION

  ----------------------------------- OT ---------------------------------------
  Minimizer      : DIIS                : direct inversion
                                         in the iterative subspace
                                         using   7 DIIS vectors
                                         safer DIIS on
  Preconditioner : FULL_SINGLE_INVERSE : inversion of 
                                         H + eS - 2*(Sc)(c^T*H*c+const)(Sc)^T
  Precond_solver : DEFAULT
  stepsize       :    0.08000000                  energy_gap     :    0.08000000
  eps_taylor     :   0.10000E-15                  max_taylor     :             4
  ----------------------------------- OT ---------------------------------------

  Step     Update method      Time    Convergence         Total energy    Change
  ------------------------------------------------------------------------------
     1 OT DIIS     0.80E-01    1.6     0.15524025       -29.6500368823 -2.97E+01
     2 OT DIIS     0.80E-01    1.1     0.08848412       -30.5086830053 -8.59E-01
     3 OT DIIS     0.80E-01    1.1     0.05091924       -30.7193642809 -2.11E-01
     4 OT DIIS     0.80E-01    1.1     0.02724790       -30.8201335698 -1.01E-01
     5 OT DIIS     0.80E-01    1.1     0.01310722       -30.8592854071 -3.92E-02
     6 OT DIIS     0.80E-01    1.1     0.00989206       -30.8705530090 -1.13E-02
     7 OT DIIS     0.80E-01    1.1     0.00454506       -30.8734299627 -2.88E-03
     8 OT DIIS     0.80E-01    1.1     0.00255407       -30.8746277092 -1.20E-03
     9 OT DIIS     0.80E-01    1.1     0.00144919       -30.8749648866 -3.37E-04
    10 OT DIIS     0.80E-01    1.1     0.00088272       -30.8750976947 -1.33E-04
    11 OT DIIS     0.80E-01    1.1     0.00049963       -30.8751374380 -3.97E-05
    12 OT DIIS     0.80E-01    1.1     0.00031036       -30.8751594516 -2.20E-05
    13 OT DIIS     0.80E-01    1.1     0.00018254       -30.8751665176 -7.07E-06
    14 OT DIIS     0.80E-01    1.1     0.00011278       -30.8751691884 -2.67E-06
    15 OT DIIS     0.80E-01    1.1     0.00010066       -30.8751698204 -6.32E-07
    16 OT DIIS     0.80E-01    1.1     0.00004768       -30.8751702784 -4.58E-07

  *** SCF run converged in    16 steps ***


  Electronic density on regular grids:        -19.5862315770        0.4137684230
  Core density on regular grids:               20.0000000000       -0.0000000000
  Hard and soft densities (Lebedev):         -318.9478176380     -318.5340494077
  Total Rho_soft + Rho1_hard - Rho1_soft      -19.9999998073
  Total charge density (r-space):               0.0000001927
  Total Rho_soft + Rho0_soft (g-space):         0.0000001266

  Overlap energy of the core charge distribution:               0.00000136846112
  Self energy of the core charge distribution:                -76.65906668574564
  Core Hamiltonian energy:                                     23.06065171977140
  Hartree energy:                                              45.60665675353798
  Exchange-correlation energy:                                 -8.67569283274599

  GAPW| Exc from hard and soft atomic rho1:                    -0.38529305369915
  GAPW| local Eh = 1 center integrals:                        -13.82242754800061

  Total energy:                                               -30.87517027842091

  outer SCF iter =    1 RMS gradient =   0.48E-04 energy =        -30.8751702784
  outer SCF loop converged in   1 iterations or   16 steps

  
  Eigenvalues of the occupied subspace spin            1
 ---------------------------------------------
      -0.89196466     -0.70155582     -0.54127378     -0.45744208
      -0.42627533     -0.37336787     -0.32715086     -0.31139897
      -0.29535171     -0.19264624
 Fermi Energy [eV] :   -5.242171
  
  Lowest Eigenvalues of the unoccupied subspace spin            1
 -----------------------------------------------------
 OT| Eigensolver reached convergence in 35 iterations
      -0.05578508
  
 HOMO - LUMO gap [eV] :    3.724181

 ENERGY| Total FORCE_EVAL ( QS ) energy [a.u.]:              -30.875170278420910

 -------------------------------------------------------------------------------
 -                                                                             -
 -                                DBCSR STATISTICS                             -
 -                                                                             -
 -------------------------------------------------------------------------------
 COUNTER                                    TOTAL       BLAS       SMM       ACC
 flops    10 x     1 x    10                  200       0.0%    100.0%      0.0%
 flops    10 x     1 x     6                  720       0.0%    100.0%      0.0%
 flops    12 x     1 x    10                  720       0.0%    100.0%      0.0%
 flops    10 x     1 x    17                 1020       0.0%    100.0%      0.0%
 flops    51 x     1 x    10                 1020       0.0%    100.0%      0.0%
 flops    11 x     1 x    11                 4356       0.0%    100.0%      0.0%
 flops     1 x     1 x     6                 4968       0.0%    100.0%      0.0%
 flops     1 x     1 x    17                 7038       0.0%    100.0%      0.0%
 flops     6 x    10 x    10                 7200       0.0%    100.0%      0.0%
 flops    11 x    11 x     6                 8712       0.0%    100.0%      0.0%
 flops    23 x     1 x    11                 9108       0.0%    100.0%      0.0%
 flops    12 x     1 x    11                 9504       0.0%    100.0%      0.0%
 flops    17 x    10 x    10                10200       0.0%    100.0%      0.0%
 flops    11 x    11 x    17                12342       0.0%    100.0%      0.0%
 flops    11 x     1 x     6                14256       0.0%    100.0%      0.0%
 flops    40 x     1 x    11                15840       0.0%    100.0%      0.0%
 flops    23 x    11 x     6                18216       0.0%    100.0%      0.0%
 flops    12 x    11 x     6                19008       0.0%    100.0%      0.0%
 flops    11 x     1 x    17                20196       0.0%    100.0%      0.0%
 flops    23 x    11 x    17                25806       0.0%    100.0%      0.0%
 flops    12 x    11 x    17                26928       0.0%    100.0%      0.0%
 flops    23 x     1 x     6                29808       0.0%    100.0%      0.0%
 flops    12 x     1 x     6                31104       0.0%    100.0%      0.0%
 flops    40 x    11 x     6                31680       0.0%    100.0%      0.0%
 flops    23 x     1 x    17                42228       0.0%    100.0%      0.0%
 flops    12 x     1 x    17                44064       0.0%    100.0%      0.0%
 flops    40 x    11 x    17                44880       0.0%    100.0%      0.0%
 flops    40 x     1 x     6                51840       0.0%    100.0%      0.0%
 flops    40 x     1 x    17                73440       0.0%    100.0%      0.0%
 flops     6 x     1 x     6               186624       0.0%    100.0%      0.0%
 flops    17 x     1 x     6               264384       0.0%    100.0%      0.0%
 flops     6 x     1 x    17               264384       0.0%    100.0%      0.0%
 flops     6 x     6 x    10               272160       0.0%    100.0%      0.0%
 flops    10 x    10 x    10               276000       0.0%    100.0%      0.0%
 flops    23 x    10 x     6               281520       0.0%    100.0%      0.0%
 flops    12 x    10 x     6               293760       0.0%    100.0%      0.0%
 flops     6 x    17 x    10               330480       0.0%    100.0%      0.0%
 flops    17 x     6 x    10               330480       0.0%    100.0%      0.0%
 flops    23 x    10 x    10               363400       0.0%    100.0%      0.0%
 flops    17 x     1 x    17               374544       0.0%    100.0%      0.0%
 flops    12 x    10 x    10               379200       0.0%    100.0%      0.0%
 flops    23 x    10 x    17               398820       0.0%    100.0%      0.0%
 flops    12 x    10 x    17               416160       0.0%    100.0%      0.0%
 flops    10 x    10 x     6               468000       0.0%    100.0%      0.0%
 flops    40 x    10 x     6               489600       0.0%    100.0%      0.0%
 flops    17 x    17 x    10               624240       0.0%    100.0%      0.0%
 flops    40 x    10 x    10               632000       0.0%    100.0%      0.0%
 flops    10 x    10 x    17               663000       0.0%    100.0%      0.0%
 flops    40 x    10 x    17               693600       0.0%    100.0%      0.0%
 flops     6 x    10 x     6              1036800       0.0%    100.0%      0.0%
 flops     6 x    10 x    17              1468800       0.0%    100.0%      0.0%
 flops    17 x    10 x     6              1468800       0.0%    100.0%      0.0%
 flops    17 x    10 x    17              2080800       0.0%    100.0%      0.0%
 flops inhomo. stacks                       18790       0.0%    100.0%      0.0%
 flops total                        14.642748E+06       0.0%    100.0%      0.0%
 flops max/rank                      7.295580E+06       0.0%    100.0%      0.0%
 matmuls inhomo. stacks                       597       0.0%    100.0%      0.0%
 matmuls total                              13719       0.0%    100.0%      0.0%
 number of processed stacks                  9808       0.0%    100.0%      0.0%
 average stack size                                     0.0       1.4       0.0
 marketing flops                    15.827889E+06
 -------------------------------------------------------------------------------
 # multiplications                            858
 max memory usage/rank             297.906176E+06
 # max total images/rank                        3
 # max 3D layers                                1
 # MPI messages exchanged                  391248
 MPI messages size (bytes):
  total size                        57.106584E+06
  min size                           0.000000E+00
  max size                           6.936000E+03
  average size                     145.960068E+00
 MPI breakdown and total messages size (bytes):
             size <=      128              349990                   412616
       128 < size <=     8192               41258                 56693968
      8192 < size <=    32768                   0                        0
     32768 < size <=   131072                   0                        0
    131072 < size <=  4194304                   0                        0
   4194304 < size <= 16777216                   0                        0
  16777216 < size                               0                        0
 -------------------------------------------------------------------------------

 *** WARNING in dbcsr_mm.F:294 :: Using a non-square number of MPI ranks ***
 *** might lead to poor performance. Used ranks: 24 Suggested: 25 49     ***

 -------------------------------------------------------------------------------
 -                                                                             -
 -                      DBCSR MESSAGE PASSING PERFORMANCE                      -
 -                                                                             -
 -------------------------------------------------------------------------------
 ROUTINE             CALLS      AVE VOLUME [Bytes]
 MP_Bcast               54                     12.
 MP_Allreduce         4481                      8.
 MP_Alltoall          3334                   1358.
 MP_ISend            36780                    245.
 MP_IRecv            36524                    172.
 -------------------------------------------------------------------------------

 -------------------------------------------------------------------------------
 -                                                                             -
 -                                GRID STATISTICS                              -
 -                                                                             -
 -------------------------------------------------------------------------------
 LP    KERNEL             BACKEND                              COUNT     PERCENT
 2     collocate ortho    REF                                  12282      21.57%
 2     integrate ortho    REF                                  11520      20.23%
 3     collocate ortho    REF                                  10183      17.89%
 3     integrate ortho    REF                                   9584      16.83%
 2     collocate general  REF                                   3456       6.07%
 2     integrate general  REF                                   3456       6.07%
 4     collocate ortho    REF                                   3281       5.76%
 4     integrate ortho    REF                                   3088       5.42%
 1     collocate ortho    REF                                     84       0.15%
 -------------------------------------------------------------------------------

 MEMORY| Estimated peak process memory [MiB]                                 285

 -------------------------------------------------------------------------------
 ----                             MULTIGRID INFO                            ----
 -------------------------------------------------------------------------------
 count for grid        1:         678548          cutoff [a.u.]          200.00
 count for grid        2:         366100          cutoff [a.u.]           66.67
 count for grid        3:         289559          cutoff [a.u.]           22.22
 count for grid        4:         206593          cutoff [a.u.]            7.41
 total gridlevel count  :        1540800

 -------------------------------------------------------------------------------
 -                                                                             -
 -                         MESSAGE PASSING PERFORMANCE                         -
 -                                                                             -
 -------------------------------------------------------------------------------

 ROUTINE             CALLS      AVE VOLUME [Bytes]
 MP_Group                4
 MP_Bcast             1110                 501370.
 MP_Allreduce         2876                   2599.
 MP_Sync               108
 MP_Alltoall           447               11255971.
 MP_ISendRecv         1610                  59520.
 MP_Wait              4877
 MP_comm_split          52
 MP_ISend             2926                 279992.
 MP_IRecv             2926                 280040.
 MP_Recv                 4                   1392.
 MP_Write_All            2                 485376.
 -------------------------------------------------------------------------------


 -------------------------------------------------------------------------------
 -                                                                             -
 -                           R E F E R E N C E S                               -
 -                                                                             -
 -------------------------------------------------------------------------------
 
 CP2K version 9.1, the CP2K developers group (2021).
 CP2K is freely available from https://www.cp2k.org/ .

 Kuehne,Thomas D.; Iannuzzi,Marcella; Del Ben,Mauro;
 Rybkin,Vladimir V.; Seewald,Patrick; Stein,Frederick; Laino,Teodoro;
 Khaliullin,Rustam Z.; Schuett,Ole; Schiffmann,Florian; Golze,Dorothea;
 Wilhelm,Jan; Chulkov,Sergey; Bani-Hashemian,Mohammad Hossein;
 Weber,Valery; Borstnik,Urban; Taillefumier,Mathieu;
 Jakobovits,Alice Shoshana; Lazzaro,Alfio; Pabst,Hans; Mueller,Tiziano;
 Schade,Robert; Guidon,Manuel; Andermatt,Samuel; Holmberg,Nico;
 Schenter,Gregory K.; Hehn,Anna; Bussy,Augustin; Belleflamme,Fabian;
 Tabacchi,Gloria; Gloess,Andreas; Lass,Michael; Bethune,Iain;
 Mundy,Christopher J.; Plessl,Christian; Watkins,Matt;
 VandeVondele,Joost; Krack,Matthias; Hutter,Juerg. 
 The Journal of Chemical Physics, 152 (19), (2020). 
 CP2K: An electronic structure and molecular dynamics software package -
 Quickstep: Efficient and accurate electronic structure calculations.
 https://doi.org/10.1063/5.0007045

 Schuett, Ole; Messmer, Peter; Hutter, Juerg; VandeVondele, Joost. 
 Electronic Structure Calculations on Graphics Processing Units, John
 Wiley & Sons, Ltd, 173-190 (2016). 
 GPU-Accelerated Sparse Matrix-Matrix Multiplication for
 Linear Scaling Density Functional Theory.
 https://doi.org/10.1002/9781118670712.ch8

 Borstnik, U; VandeVondele, J; Weber, V; Hutter, J. 
 PARALLEL COMPUTING, 40 (5-6), 47-58 (2014). 
 Sparse matrix multiplication: The distributed block-compressed sparse
 row library.
 https://doi.org/10.1016/j.parco.2014.03.012

 Hutter, J; Iannuzzi, M; Schiffmann, F; VandeVondele, J. 
 WIREs Comput Mol Sci., 4 (1), 15-25 (2014). 
 CP2K: atomistic simulations of condensed matter systems.
 https://doi.org/10.1002/wcms.1159

 Marek, A; Blum, V; Johanni, R; Havu, V; Lang, B; Auckenthaler, T;
 Heinecke, A; Bungartz, H; Lederer, H. 
 Journal of Physics: Condensed Matter, 26 (21), (2014). 
 The ELPA library: scalable parallel eigenvalue solutions for
 electronic structure
 theory and computational science.
 https://doi.org/10.1088/0953-8984/26/21/213201

 VandeVondele, J; Hutter, J. 
 JOURNAL OF CHEMICAL PHYSICS, 127 (11), 114105 (2007). 
 Gaussian basis sets for accurate calculations on molecular systems in
 gas and condensed phases.
 https://doi.org/10.1063/1.2770708

 Genovese, L; Deutsch, T; Goedecker, S. 
 JOURNAL OF CHEMICAL PHYSICS, 127 (5), 054704 (2007). 
 Efficient and accurate three-dimensional Poisson solver for surface
 problems.
 https://doi.org/10.1063/1.2754685

 Genovese, L; Deutsch, T; Neelov, A; Goedecker, S; Beylkin, G. 
 JOURNAL OF CHEMICAL PHYSICS, 125 (7), 074105 (2006). 
 Efficient solution of Poisson's equation with free boundary conditions.
 https://doi.org/10.1063/1.2335442

 Krack, M. 
 THEORETICAL CHEMISTRY ACCOUNTS, 114 (1-3), 145-152 (2005). 
 Pseudopotentials for H to Kr optimized for gradient-corrected
 exchange-correlation functionals.
 https://doi.org/10.1007/s00214-005-0655-y

 Frigo, M; Johnson, SG. 
 PROCEEDINGS OF THE IEEE, 93 (2), 216-231 (2005). 
 The design and implementation of FFTW3.
 https://doi.org/10.1109/JPROC.2004.840301

 VandeVondele, J; Hutter, J. 
 JOURNAL OF CHEMICAL PHYSICS, 118 (10), 4365-4369 (2003). 
 An efficient orbital transformation method for electronic structure
 calculations.
 https://doi.org/10.1063/1.1543154

 Lippert, G; Hutter, J; Parrinello, M. 
 THEORETICAL CHEMISTRY ACCOUNTS, 103 (2), 124-140 (1999). 
 The Gaussian and augmented-plane-wave density functional method for ab
 initio molecular dynamics simulations.
 https://doi.org/10.1007/s002140050523

 Krack, M; Parrinello, M. 
 PHYSICAL CHEMISTRY CHEMICAL PHYSICS, 2 (10), 2105-2112 (2000). 
 All-electron ab-initio molecular dynamics.
 https://doi.org/10.1039/b001167n

 Hartwigsen, C; Goedecker, S; Hutter, J. 
 PHYSICAL REVIEW B, 58 (7), 3641-3662 (1998). 
 Relativistic separable dual-space Gaussian pseudopotentials from H to Rn.
 https://doi.org/10.1103/PhysRevB.58.3641

 Perdew, JP; Burke, K; Ernzerhof, M. 
 PHYSICAL REVIEW LETTERS, 77 (18), 3865-3868 (1996). 
 Generalized gradient approximation made simple.
 https://doi.org/10.1103/PhysRevLett.77.3865

 Goedecker, S; Teter, M; Hutter, J. 
 PHYSICAL REVIEW B, 54 (3), 1703-1710 (1996). 
 Separable dual-space Gaussian pseudopotentials.
 https://doi.org/10.1103/PhysRevB.54.1703


 -------------------------------------------------------------------------------
 -                                                                             -
 -                                T I M I N G                                  -
 -                                                                             -
 -------------------------------------------------------------------------------
 SUBROUTINE                       CALLS  ASD         SELF TIME        TOTAL TIME
                                MAXIMUM       AVERAGE  MAXIMUM  AVERAGE  MAXIMUM
 CP2K                                 1  1.0    0.014    0.017   19.893   19.894
 qs_energies                          1  2.0    0.000    0.000   19.632   19.664
 scf_env_do_scf                       1  3.0    0.003    0.004   18.501   18.501
 scf_env_do_scf_inner_loop           16  4.0    0.000    0.001   16.925   16.927
 qs_ks_update_qs_env                 17  5.0    0.000    0.000   15.705   15.706
 rebuild_ks_matrix                   16  6.0    0.000    0.000   15.705   15.705
 qs_ks_build_kohn_sham_matrix        16  7.0    0.002    0.003   15.705   15.705
 pw_transfer                        351  9.5    0.021    0.028   10.209   10.984
 fft_wrap_pw1pw2                    335 10.5    0.004    0.004   10.166   10.943
 fft_wrap_pw1pw2_200                230 11.6    0.895    0.923    9.957   10.738
 fft3d_ps                           335 12.5    4.773    4.859    7.646    8.434
 qs_vxc_create                       16  8.0    0.000    0.000    7.585    7.585
 xc_vxc_pw_create                    16  9.0    0.081    0.113    7.584    7.585
 xc_rho_set_and_dset_create          16 10.0    0.041    0.042    4.354    4.651
 pw_poisson_solve                    16  8.0    0.069    0.074    3.337    3.337
 qs_rho_update_rho                   17  5.0    0.000    0.000    2.600    2.600
 calculate_rho_elec                  17  6.0    0.020    0.022    2.582    2.582
 rs_pw_transfer                     172  9.3    0.003    0.003    2.442    2.480
 yz_to_x                            172 13.0    0.638    0.681    1.539    2.339
 density_rs2pw                       17  7.0    0.001    0.001    2.301    2.335
 mp_alltoall_z22v                   335 14.5    1.491    2.313    1.491    2.313
 xc_functional_eval                  80 10.6    0.000    0.000    1.743    2.050
 pbe_lda_eval                        80 11.6    1.743    2.050    1.743    2.050
 sum_up_and_integrate                16  8.0    0.021    0.022    1.618    1.618
 integrate_v_rspace                  16  9.0    0.000    0.001    1.597    1.597
 init_scf_loop                        1  4.0    0.000    0.000    1.571    1.571
 potential_pw2rs                     16 10.0    0.002    0.002    1.502    1.502
 prepare_gapw_den                    16  8.0    0.000    0.000    1.397    1.401
 x_to_yz                            163 14.0    0.734    0.744    1.324    1.374
 put_rho0_on_grid                    16  9.0    0.021    0.025    1.255    1.259
 ps_wavelet_solve                    16  9.0    0.798    0.883    1.078    1.088
 rs_pw_transfer_PW2RS_200            32 11.0    0.655    0.663    1.042    1.058
 rs_pw_transfer_RS2PW_200            35  9.8    0.745    0.777    1.006    1.043
 scf_post_calculation_gpw             1  3.0    0.000    0.000    0.933    0.965
 pw_gather_p                        172 12.0    0.817    0.844    0.817    0.844
 pw_scatter_p                       163 13.0    0.784    0.798    0.784    0.798
 mp_alltoall_d54                     16 10.0    0.155    0.750    0.155    0.750
 dbcsr_multiply_generic             858  8.8    0.023    0.024    0.699    0.704
 integrate_vhg0_rspace               16  8.0    0.009    0.012    0.642    0.642
 pw_poisson_rebuild                  16  9.0    0.000    0.000    0.578    0.580
 ps_wavelet_create                    1 10.0    0.000    0.000    0.578    0.580
 RS_z_slice_distribution              1 11.0    0.548    0.560    0.578    0.580
 mp_waitany                        2926 11.3    0.502    0.542    0.502    0.542
 pw_derive                           96 10.5    0.487    0.503    0.487    0.503
 make_lumo_gpw                        1  4.0    0.000    0.000    0.458    0.458
 ot_eigensolver                       1  5.0    0.000    0.000    0.455    0.455
 ot_mini                             51  6.6    0.000    0.000    0.405    0.406
 -------------------------------------------------------------------------------

 The number of warnings for this run is : 2
 
 -------------------------------------------------------------------------------
  **** **** ******  **  PROGRAM ENDED AT                 2023-04-15 12:08:35.153
 ***** ** ***  *** **   PROGRAM RAN ON                                  nid01929
 **    ****   ******    PROGRAM RAN BY                                   ramador
 ***** **    ** ** **   PROGRAM PROCESS ID                                 32062
  **** **  *******  **  PROGRAM STOPPED IN /scratch/snx3000/ramador/MMM_2023/ex7
                                           /ts
