       9
 i =        1, E =       -30.7252508660
  O         6.3090611358        6.9171007162        7.4999486467
  C         7.3755897653        7.8787199617        7.4999945145
  C         8.6877205039        7.1135675893        7.4999804296
  H         5.4660185825        7.3890104430        7.5000771141
  H         7.3123785817        8.5239807757        8.3882791324
  H         7.3123222625        8.5240090824        6.6117258542
  H         9.5354538375        7.8064513770        7.4999859878
  H         8.7589998882        6.4764051168        8.3864398202
  H         8.7590446708        6.4763741792        6.6135684668
       9
 i =        2, E =       -30.7252738448
  O         6.3055584642        6.9175212034        7.4999697419
  C         7.3797513101        7.8805045672        7.4999607307
  C         8.6926422436        7.1113908593        7.4999841396
  H         5.4616167109        7.3902700211        7.5000963212
  H         7.3097512335        8.5234629200        8.3897819175
  H         7.3097163297        8.5235455945        6.6102152354
  H         9.5379087390        7.8084844311        7.4999828423
  H         8.7603507308        6.4752614938        8.3886436057
  H         8.7603875573        6.4752330035        6.6113629176
       9
 i =        3, E =       -30.7252849945
  O         6.3038990310        6.9158108201        7.4999709077
  C         7.3774327604        7.8809567844        7.4999775159
  C         8.6905963685        7.1130920749        7.4999820215
  H         5.4617327999        7.3912828649        7.5000869144
  H         7.3103901286        8.5233961113        8.3898384292
  H         7.3103836683        8.5234507487        6.6101625957
  H         9.5388574425        7.8061963573        7.4999863954
  H         8.7624747630        6.4757437532        8.3870291509
  H         8.7624984428        6.4757112958        6.6129614871
       9
 i =        4, E =       -30.7252848054
  O         6.3038990310        6.9158108201        7.4999709077
  C         7.3774327604        7.8809567844        7.4999775159
  C         8.6905963685        7.1130920749        7.4999820215
  H         5.4617327999        7.3912828649        7.5000869144
  H         7.3103901286        8.5233961113        8.3898384292
  H         7.3103836683        8.5234507487        6.6101625957
  H         9.5388574425        7.8061963573        7.4999863954
  H         8.7624747630        6.4757437532        8.3870291509
  H         8.7624984428        6.4757112958        6.6129614871
