       6
 i =        1, E =       -13.7197166305
  H         6.1876012920        8.4224319663        7.4999986746
  H         6.1928028275        6.5717267456        7.5000182144
  C         6.8322085081        7.4986610543        7.4999702019
  C         8.1657931870        7.5019791240        7.5000174516
  H         8.8091024671        8.4300175331        7.4999951881
  H         8.8136672860        6.5767075488        7.5000003148
       6
 i =        2, E =       -13.7240001675
  H         6.2606650185        8.4123845665        7.4999763046
  H         6.2652651035        6.5817572530        7.4999891924
  C         6.8329853208        7.4986711006        7.5000490872
  C         8.1667343239        7.5019378372        7.4999608956
  H         8.7357143610        8.4196213739        7.5000075072
  H         8.7399679258        6.5871671765        7.5000168972
       6
 i =        3, E =       -13.7243919501
  H         6.2560578407        8.4266322918        7.4999936881
  H         6.2607397529        6.5676689333        7.5000064944
  C         6.8326251413        7.4985522706        7.4999848288
  C         8.1676799987        7.5019971894        7.5000187604
  H         8.7399147933        8.4326093683        7.4999930453
  H         8.7443183179        6.5740876490        7.5000031229
       6
 i =        4, E =       -13.7243974213
  H         6.2565381333        8.4251763119        7.4999885026
  H         6.2613152565        6.5691370338        7.5000007999
  C         6.8331196756        7.4986482287        7.5000069789
  C         8.1673312193        7.5019148663        7.4999936458
  H         8.7392308159        8.4313892046        7.4999997220
  H         8.7437881890        6.5752920584        7.5000103139
       6
 i =        5, E =       -13.7243973296
  H         6.2565381333        8.4251763119        7.4999885026
  H         6.2613152565        6.5691370338        7.5000007999
  C         6.8331196756        7.4986482287        7.5000069789
  C         8.1673312193        7.5019148663        7.4999936458
  H         8.7392308159        8.4313892046        7.4999997220
  H         8.7437881890        6.5752920584        7.5000103139
