 DBCSR| CPU Multiplication driver                                            SMM
 DBCSR| Multrec recursion limit                                              512
 DBCSR| Multiplication stack size                                          30000
 DBCSR| Maximum elements for images                                    UNLIMITED
 DBCSR| Multiplicative factor virtual images                                   1
 DBCSR| Use multiplication densification                                       F
 DBCSR| Multiplication size stacks                                             3
 DBCSR| Number of 3D layers                                               SINGLE
 DBCSR| Use MPI memory allocation                                              T
 DBCSR| Use RMA algorithm                                                      F
 DBCSR| Use Communication thread                                               T
 DBCSR| Communication thread load                                             87
 DBCSR| ACC: Number of devices/node                                            1
 DBCSR| ACC: Number of priority stack-buffers                                 40
 DBCSR| ACC: Number of posterior stack-buffers                                80
 DBCSR| ACC: Number of priority streams                                        4
 DBCSR| ACC: Number of posterior streams                                       4
 DBCSR| ACC: Avoid driver after busy                                           F
 DBCSR| ACC: Process inhomogeneous stacks                                      T
 DBCSR| ACC: Min. flop for processing                                          0
 DBCSR| ACC: Min. flop for sorting                                          4000
 DBCSR| ACC: Number of binning bins                                         4096
 DBCSR| ACC: Size of binning bins                                             16


  **** **** ******  **  PROGRAM STARTED AT               2021-04-19 19:58:50.732
 ***** ** ***  *** **   PROGRAM STARTED ON                              nid04064
 **    ****   ******    PROGRAM STARTED BY                               ramador
 ***** **    ** ** **   PROGRAM PROCESS ID                                 15801
  **** **  *******  **  PROGRAM STARTED IN   /scratch/snx3000/ramador/exercise_8

 CP2K| version string:                                          CP2K version 7.1
 CP2K| source code revision number:                                  git:e635599
 CP2K| cp2kflags: omp libint fftw3 libxc elpa parallel mpi3 scalapack acc smm_dn
 CP2K|            n smm dbcsr_acc max_contr=4
 CP2K| is freely available from                            https://www.cp2k.org/
 CP2K| Program compiled at                          Wed Mar 17 13:03:11 CET 2021
 CP2K| Program compiled on                                              daint101
 CP2K| Program compiled for                                CP2K-7.1-CrayGNU-cuda
 CP2K| Data directory path    /apps/daint/UES/jenkins/7.0.UP02-20.11/gpu/easybui
 CP2K| Input file name                                                    ts.inp

 GLOBAL| Force Environment number                                              1
 GLOBAL| Basis set file name                                        BASIS_MOLOPT
 GLOBAL| Potential file name                                      GTH_POTENTIALS
 GLOBAL| MM Potential file name                                     MM_POTENTIAL
 GLOBAL| Coordinate file name                                             ts.xyz
 GLOBAL| Method name                                                        CP2K
 GLOBAL| Project name                                                         ts
 GLOBAL| Preferred FFT library                                             FFTW3
 GLOBAL| Preferred diagonalization lib.                                     ELPA
 GLOBAL| Run type                                                         ENERGY
 GLOBAL| All-to-all communication in single precision                          F
 GLOBAL| FFTs using library dependent lengths                                  F
 GLOBAL| Global print level                                                  LOW
 GLOBAL| MPI I/O enabled                                                       T
 GLOBAL| Total number of message passing processes                             1
 GLOBAL| Number of threads for this process                                    1
 GLOBAL| This output is from process                                           0
 GLOBAL| CPU model name                Intel(R) Xeon(R) CPU E5-2690 v3 @ 2.60GHz
 GLOBAL| CPUID                                                              1002

 MEMORY| system memory details [Kb]
 MEMORY|                        rank 0           min           max       average
 MEMORY| MemTotal             65842332      65842332      65842332      65842332
 MEMORY| MemFree              61486564      61486564      61486564      61486564
 MEMORY| Buffers                  6048          6048          6048          6048
 MEMORY| Cached                1925596       1925596       1925596       1925596
 MEMORY| Slab                   320968        320968        320968        320968
 MEMORY| SReclaimable            44236         44236         44236         44236
 MEMORY| MemLikelyFree        63462444      63462444      63462444      63462444


 GENERATE|  Preliminary Number of Bonds generated:                             0
 GENERATE|  Achieved consistency in connectivity generation.

 *******************************************************************************
 *******************************************************************************
 **                                                                           **
 **     #####                         ##              ##                      **
 **    ##   ##            ##          ##              ##                      **
 **   ##     ##                       ##            ######                    **
 **   ##     ##  ##   ##  ##   #####  ##  ##   ####   ##    #####    #####    **
 **   ##     ##  ##   ##  ##  ##      ## ##   ##      ##   ##   ##  ##   ##   **
 **   ##  ## ##  ##   ##  ##  ##      ####     ###    ##   ######   ######    **
 **    ##  ###   ##   ##  ##  ##      ## ##      ##   ##   ##       ##        **
 **     #######   #####   ##   #####  ##  ##  ####    ##    #####   ##        **
 **           ##                                                    ##        **
 **                                                                           **
 **                                                ... make the atoms dance   **
 **                                                                           **
 **            Copyright (C) by CP2K developers group (2000 - 2019)           **
 **                                                                           **
 *******************************************************************************


 TOTAL NUMBERS AND MAXIMUM NUMBERS

  Total number of            - Atomic kinds:                                   3
                             - Atoms:                                          9
                             - Shell sets:                                     9
                             - Shells:                                        33
                             - Primitive Cartesian functions:                 63
                             - Cartesian basis functions:                     72
                             - Spherical basis functions:                     69

  Maximum angular momentum of- Orbital basis functions:                        2
                             - Local part of the GTH pseudopotential:          2
                             - Non-local part of the GTH pseudopotential:      0


 SCF PARAMETERS         Density guess:                                   RESTART
                        --------------------------------------------------------
                        max_scf:                                              50
                        max_scf_history:                                       0
                        max_diis:                                              4
                        --------------------------------------------------------
                        eps_scf:                                        1.00E-04
                        eps_scf_history:                                0.00E+00
                        eps_diis:                                       1.00E-01
                        eps_eigval:                                     1.00E-05
                        --------------------------------------------------------
                        level_shift [a.u.]:                                 0.00
                        --------------------------------------------------------
                        Outer loop SCF in use 
                        No variables optimised in outer loop
                        eps_scf                                         1.00E-04
                        max_scf                                              500
                        No outer loop optimization
                        step_size                                       5.00E-01

 PW_GRID| Information for grid number                                          1
 PW_GRID| Cutoff [a.u.]                                                    200.0
 PW_GRID| spherical cutoff:                                                   NO
 PW_GRID|   Bounds   1            -96      95                Points:         192
 PW_GRID|   Bounds   2            -96      95                Points:         192
 PW_GRID|   Bounds   3            -96      95                Points:         192
 PW_GRID| Volume element (a.u.^3)  0.3218E-02     Volume (a.u.^3)     22775.6292
 PW_GRID| Grid span                                                    FULLSPACE

 PW_GRID| Information for grid number                                          2
 PW_GRID| Number of the reference grid                                         1
 PW_GRID| Cutoff [a.u.]                                                     66.7
 PW_GRID| spherical cutoff:                                                   NO
 PW_GRID|   Bounds   1            -54      53                Points:         108
 PW_GRID|   Bounds   2            -54      53                Points:         108
 PW_GRID|   Bounds   3            -54      53                Points:         108
 PW_GRID| Volume element (a.u.^3)  0.1808E-01     Volume (a.u.^3)     22775.6292
 PW_GRID| Grid span                                                    FULLSPACE

 PW_GRID| Information for grid number                                          3
 PW_GRID| Number of the reference grid                                         1
 PW_GRID| Cutoff [a.u.]                                                     22.2
 PW_GRID| spherical cutoff:                                                   NO
 PW_GRID|   Bounds   1            -32      31                Points:          64
 PW_GRID|   Bounds   2            -32      31                Points:          64
 PW_GRID|   Bounds   3            -32      31                Points:          64
 PW_GRID| Volume element (a.u.^3)  0.8688E-01     Volume (a.u.^3)     22775.6292
 PW_GRID| Grid span                                                    FULLSPACE

 PW_GRID| Information for grid number                                          4
 PW_GRID| Number of the reference grid                                         1
 PW_GRID| Cutoff [a.u.]                                                      7.4
 PW_GRID| spherical cutoff:                                                   NO
 PW_GRID|   Bounds   1            -18      17                Points:          36
 PW_GRID|   Bounds   2            -18      17                Points:          36
 PW_GRID|   Bounds   3            -18      17                Points:          36
 PW_GRID| Volume element (a.u.^3)  0.4882         Volume (a.u.^3)     22775.6292
 PW_GRID| Grid span                                                    FULLSPACE

 POISSON| Solver                                                         WAVELET
 POISSON| Wavelet| Scaling function                                           40
 POISSON| Periodicity                                                       NONE

 RS_GRID| Information for grid number                                          1
 RS_GRID|   Bounds   1            -96      95                Points:         192
 RS_GRID|   Bounds   2            -96      95                Points:         192
 RS_GRID|   Bounds   3            -96      95                Points:         192

 RS_GRID| Information for grid number                                          2
 RS_GRID|   Bounds   1            -54      53                Points:         108
 RS_GRID|   Bounds   2            -54      53                Points:         108
 RS_GRID|   Bounds   3            -54      53                Points:         108

 RS_GRID| Information for grid number                                          3
 RS_GRID|   Bounds   1            -32      31                Points:          64
 RS_GRID|   Bounds   2            -32      31                Points:          64
 RS_GRID|   Bounds   3            -32      31                Points:          64

 RS_GRID| Information for grid number                                          4
 RS_GRID|   Bounds   1            -18      17                Points:          36
 RS_GRID|   Bounds   2            -18      17                Points:          36
 RS_GRID|   Bounds   3            -18      17                Points:          36

 Number of electrons:                                                         20
 Number of occupied orbitals:                                                 10
 Number of molecular orbitals:                                                10

 Number of orbital functions:                                                 69
 Number of independent orbital functions:                                     69

 Extrapolation method: initial_guess

 *** WARNING in qs_initial_guess.F:280 :: User requested to restart the   ***
 *** wavefunction from the file named: ts-RESTART.wfn. This file does not ***
 *** exist. Please check the existence of the file or change properly the ***
 *** value of the keyword WFN_RESTART_FILE_NAME. Calculation continues    ***
 *** using ATOMIC GUESS.                                                  ***



 SCF WAVEFUNCTION OPTIMIZATION

  ----------------------------------- OT ---------------------------------------
  Minimizer      : DIIS                : direct inversion
                                         in the iterative subspace
                                         using   7 DIIS vectors
                                         safer DIIS on
  Preconditioner : FULL_SINGLE_INVERSE : inversion of 
                                         H + eS - 2*(Sc)(c^T*H*c+const)(Sc)^T
  Precond_solver : DEFAULT
  stepsize       :    0.08000000                  energy_gap     :    0.08000000
  eps_taylor     :   0.10000E-15                  max_taylor     :             4
  ----------------------------------- OT ---------------------------------------

  Step     Update method      Time    Convergence         Total energy    Change
  ------------------------------------------------------------------------------
     1 OT DIIS     0.80E-01   13.1     0.16327461       -29.1632617122 -2.92E+01
     2 OT DIIS     0.80E-01   10.2     0.11903205       -30.2494220480 -1.09E+00
     3 OT DIIS     0.80E-01   10.1     0.08162385       -30.6299638396 -3.81E-01
     4 OT DIIS     0.80E-01   10.1     0.04691259       -30.7892168204 -1.59E-01
     5 OT DIIS     0.80E-01   10.1     0.02893483       -30.8263046667 -3.71E-02
     6 OT DIIS     0.80E-01   10.0     0.02719272       -30.8542954313 -2.80E-02
     7 OT DIIS     0.80E-01   10.0     0.00976406       -30.8653188469 -1.10E-02
     8 OT DIIS     0.80E-01   10.0     0.00471241       -30.8703801548 -5.06E-03
     9 OT DIIS     0.80E-01   10.0     0.00281098       -30.8721079498 -1.73E-03
    10 OT DIIS     0.80E-01   10.0     0.00174592       -30.8726840751 -5.76E-04
    11 OT DIIS     0.80E-01   10.0     0.00111990       -30.8728930481 -2.09E-04
    12 OT DIIS     0.80E-01   10.1     0.00066173       -30.8730143331 -1.21E-04
    13 OT DIIS     0.80E-01   10.0     0.00045442       -30.8730478516 -3.35E-05
    14 OT DIIS     0.80E-01   10.0     0.00027356       -30.8730632343 -1.54E-05
    15 OT DIIS     0.80E-01   10.0     0.00014647       -30.8730698555 -6.62E-06
    16 OT DIIS     0.80E-01   10.0     0.00010309       -30.8730717451 -1.89E-06
    17 OT DIIS     0.80E-01   10.0     0.00006482       -30.8730725797 -8.35E-07

  *** SCF run converged in    17 steps ***


  Electronic density on regular grids:        -19.5865766751        0.4134233249
  Core density on regular grids:               20.0000000000       -0.0000000000
  Hard and soft densities (Lebedev):         -317.1616552165     -316.7482320809
  Total Rho_soft + Rho1_hard - Rho1_soft      -19.9999998108
  Total charge density (r-space):               0.0000001892
  Total Rho_soft + Rho0_soft (g-space):         0.0000001231

  Overlap energy of the core charge distribution:               0.00000136846112
  Self energy of the core charge distribution:                -76.65906668574564
  Core Hamiltonian energy:                                     23.05754161183806
  Hartree energy:                                              45.61875527276253
  Exchange-correlation energy:                                 -8.68086942512218

  GAPW| Exc from hard and soft atomic rho1:                    -0.38521004853959
  GAPW| local Eh = 1 center integrals:                        -13.82422467332136

  Total energy:                                               -30.87307257966706

  outer SCF iter =    1 RMS gradient =   0.65E-04 energy =        -30.8730725797
  outer SCF loop converged in   1 iterations or   17 steps

  
  Eigenvalues of the occupied subspace spin            1
 ---------------------------------------------
      -0.88981407     -0.70011976     -0.54003393     -0.45580118
      -0.42503857     -0.37181685     -0.32565329     -0.30952298
      -0.29366379     -0.19062663
 Fermi Energy [eV] :   -5.187214
  
  Lowest Eigenvalues of the unoccupied subspace spin            1
 -----------------------------------------------------
  Reached convergence in           45  iterations 
      -0.05241057
  
 HOMO - LUMO gap [eV] :    3.761050

 ENERGY| Total FORCE_EVAL ( QS ) energy (a.u.):              -30.873072579667056


 -------------------------------------------------------------------------------
 -                                                                             -
 -                                DBCSR STATISTICS                             -
 -                                                                             -
 -------------------------------------------------------------------------------
 COUNTER                                    TOTAL       BLAS       SMM       ACC
 flops    10 x     1 x    10                  400       0.0%    100.0%      0.0%
 flops     1 x     1 x     1                  402       0.0%    100.0%      0.0%
 flops    10 x     1 x     5                 1200       0.0%    100.0%      0.0%
 flops     5 x     1 x    10                 1200       0.0%    100.0%      0.0%
 flops    10 x     1 x    13                 1560       0.0%    100.0%      0.0%
 flops    13 x     1 x    10                 1560       0.0%    100.0%      0.0%
 flops     1 x     1 x     5                 5220       0.0%    100.0%      0.0%
 flops    11 x     1 x    11                 5566       0.0%    100.0%      0.0%
 flops     1 x     1 x    13                 6786       0.0%    100.0%      0.0%
 flops     5 x     1 x     1                 8160       0.0%    100.0%      0.0%
 flops    13 x     1 x     1                10608       0.0%    100.0%      0.0%
 flops    11 x    11 x     5                14520       0.0%    100.0%      0.0%
 flops    11 x     1 x     5                15180       0.0%    100.0%      0.0%
 flops     5 x     1 x    11                15180       0.0%    100.0%      0.0%
 flops    11 x    11 x    13                18876       0.0%    100.0%      0.0%
 flops    11 x     1 x    13                19734       0.0%    100.0%      0.0%
 flops    13 x     1 x    11                19734       0.0%    100.0%      0.0%
 flops     5 x    11 x     5                39600       0.0%    100.0%      0.0%
 flops    13 x    11 x     5                51480       0.0%    100.0%      0.0%
 flops     5 x    11 x    13                51480       0.0%    100.0%      0.0%
 flops    13 x    11 x    13                66924       0.0%    100.0%      0.0%
 flops     5 x     5 x    10               199500       0.0%      0.0%    100.0%
 flops     5 x     1 x     5               208800       0.0%    100.0%      0.0%
 flops    13 x     5 x    10               222300       0.0%      0.0%    100.0%
 flops     5 x    13 x    10               222300       0.0%      0.0%    100.0%
 flops    13 x     1 x     5               271440       0.0%    100.0%      0.0%
 flops     5 x     1 x    13               271440       0.0%    100.0%      0.0%
 flops    10 x    10 x    10               294000       0.0%      0.0%    100.0%
 flops    13 x     1 x    13               352872       0.0%    100.0%      0.0%
 flops    13 x    13 x    10               385320       0.0%      0.0%    100.0%
 flops    10 x    10 x     5               420000       0.0%      1.4%     98.6%
 flops     5 x    10 x    10               510000       0.0%      0.0%    100.0%
 flops    10 x    10 x    13               546000       0.0%      1.4%     98.6%
 flops    13 x    10 x    10               663000       0.0%      0.0%    100.0%
 flops     5 x    10 x     5              1098000       0.0%      1.6%     98.4%
 flops    13 x    10 x     5              1427400       0.0%      1.6%     98.4%
 flops     5 x    10 x    13              1427400       0.0%      1.6%     98.4%
 flops    13 x    10 x    13              1855620       0.0%      1.6%     98.4%
 flops inhomo. stacks                           0       0.0%      0.0%      0.0%
 flops total                        10.730762E+06       0.0%     14.6%     85.4%
 flops max/rank                     10.730762E+06       0.0%     14.6%     85.4%
 matmuls inhomo. stacks                         0       0.0%      0.0%      0.0%
 matmuls total                              19597       0.0%     63.0%     37.0%
 number of processed stacks                  2025       0.0%     61.9%     38.1%
 average stack size                                     0.0       9.8       9.4
 marketing flops                    11.524874E+06
 -------------------------------------------------------------------------------
 # multiplications                           1006
 max memory usage/rank               1.869201E+09
 # max total images/rank                        1
 # max 3D layers                                1
 # MPI messages exchanged                       0
 MPI messages size (bytes):
  total size                         0.000000E+00
  min size                           0.000000E+00
  max size                           0.000000E+00
  average size                       0.000000E+00
 MPI breakdown and total messages size (bytes):
             size <=      128                   0                        0
       128 < size <=     8192                   0                        0
      8192 < size <=    32768                   0                        0
     32768 < size <=   131072                   0                        0
    131072 < size <=  4194304                   0                        0
   4194304 < size <= 16777216                   0                        0
  16777216 < size                               0                        0
 -------------------------------------------------------------------------------
 -                                                                             -
 -                      DBCSR MESSAGE PASSING PERFORMANCE                      -
 -                                                                             -
 -------------------------------------------------------------------------------
 ROUTINE             CALLS      AVE VOLUME [Bytes]
 MP_Group               90
 MP_Bcast               39                     12.
 MP_Allreduce         3451                      8.
 MP_Alltoall          3976                    468.
 MP_Wait             24144
 MP_ISend             4008                    229.
 MP_IRecv             4008                    229.
 MP_Memory           26352
 -------------------------------------------------------------------------------

 MEMORY| Estimated peak process memory [MiB]                                1783

 -------------------------------------------------------------------------------
 ----                             MULTIGRID INFO                            ----
 -------------------------------------------------------------------------------
 count for grid        1:          15133          cutoff [a.u.]          200.00
 count for grid        2:           8434          cutoff [a.u.]           66.67
 count for grid        3:           6665          cutoff [a.u.]           22.22
 count for grid        4:           4895          cutoff [a.u.]            7.41
 total gridlevel count  :          35127

 -------------------------------------------------------------------------------
 -                                                                             -
 -                         MESSAGE PASSING PERFORMANCE                         -
 -                                                                             -
 -------------------------------------------------------------------------------

 ROUTINE             CALLS      AVE VOLUME [Bytes]
 MP_Group                4
 MP_Bcast             1080                   4772.
 MP_Allreduce         2348                   2153.
 MP_Sync             18436
 MP_Alltoall            34              113246208.
 -------------------------------------------------------------------------------


 -------------------------------------------------------------------------------
 -                                                                             -
 -                           R E F E R E N C E S                               -
 -                                                                             -
 -------------------------------------------------------------------------------
 
 CP2K version 7.1, the CP2K developers group (2019).
 CP2K is freely available from https://www.cp2k.org/ .

 Schuett, Ole; Messmer, Peter; Hutter, Juerg; VandeVondele, Joost. 
 Electronic Structure Calculations on Graphics Processing Units, John
 Wiley & Sons, Ltd, 173-190 (2016). 
 GPU-Accelerated Sparse Matrix-Matrix Multiplication for
 Linear Scaling Density Functional Theory.
 https://dx.doi.org/10.1002/9781118670712.ch8

 Borstnik, U; VandeVondele, J; Weber, V; Hutter, J. 
 PARALLEL COMPUTING, 40 (5-6), 47-58 (2014). 
 Sparse matrix multiplication: The distributed block-compressed sparse
 row library.
 https://dx.doi.org/10.1016/j.parco.2014.03.012

 Hutter, J; Iannuzzi, M; Schiffmann, F; VandeVondele, J. 
 WIREs Comput Mol Sci., 4 (1), 15-25 (2014). 
 CP2K: atomistic simulations of condensed matter systems.
 https://dx.doi.org/10.1002/wcms.1159

 Marek, A; Blum, V; Johanni, R; Havu, V; Lang, B; Auckenthaler, T;
 Heinecke, A; Bungartz, H; Lederer, H. 
 Journal of Physics: Condensed Matter, 26 (21), (2014). 
 The ELPA library: scalable parallel eigenvalue solutions for
 electronic structure
 theory and computational science.
 https://dx.doi.org/10.1088/0953-8984/26/21/213201

 VandeVondele, J; Hutter, J. 
 JOURNAL OF CHEMICAL PHYSICS, 127 (11), 114105 (2007). 
 Gaussian basis sets for accurate calculations on molecular systems in
 gas and condensed phases.
 https://dx.doi.org/10.1063/1.2770708

 Genovese, L; Deutsch, T; Goedecker, S. 
 JOURNAL OF CHEMICAL PHYSICS, 127 (5), 054704 (2007). 
 Efficient and accurate three-dimensional Poisson solver for surface
 problems.
 https://dx.doi.org/10.1063/1.2754685

 Genovese, L; Deutsch, T; Neelov, A; Goedecker, S; Beylkin, G. 
 JOURNAL OF CHEMICAL PHYSICS, 125 (7), 074105 (2006). 
 Efficient solution of Poisson's equation with free boundary conditions.
 https://dx.doi.org/10.1063/1.2335442

 Krack, M. 
 THEORETICAL CHEMISTRY ACCOUNTS, 114 (1-3), 145-152 (2005). 
 Pseudopotentials for H to Kr optimized for gradient-corrected
 exchange-correlation functionals.
 https://dx.doi.org/10.1007/s00214-005-0655-y

 Frigo, M; Johnson, SG. 
 PROCEEDINGS OF THE IEEE, 93 (2), 216-231 (2005). 
 The design and implementation of FFTW3.
 https://dx.doi.org/10.1109/JPROC.2004.840301

 VandeVondele, J; Hutter, J. 
 JOURNAL OF CHEMICAL PHYSICS, 118 (10), 4365-4369 (2003). 
 An efficient orbital transformation method for electronic structure
 calculations.
 https://dx.doi.org/10.1063/1.1543154

 Lippert, G; Hutter, J; Parrinello, M. 
 THEORETICAL CHEMISTRY ACCOUNTS, 103 (2), 124-140 (1999). 
 The Gaussian and augmented-plane-wave density functional method for ab
 initio molecular dynamics simulations.
 https://dx.doi.org/10.1007/s002140050523

 Krack, M; Parrinello, M. 
 PHYSICAL CHEMISTRY CHEMICAL PHYSICS, 2 (10), 2105-2112 (2000). 
 All-electron ab-initio molecular dynamics.
 https://dx.doi.org/10.1039/b001167n

 Hartwigsen, C; Goedecker, S; Hutter, J. 
 PHYSICAL REVIEW B, 58 (7), 3641-3662 (1998). 
 Relativistic separable dual-space Gaussian pseudopotentials from H to Rn.
 https://dx.doi.org/10.1103/PhysRevB.58.3641

 Perdew, JP; Burke, K; Ernzerhof, M. 
 PHYSICAL REVIEW LETTERS, 77 (18), 3865-3868 (1996). 
 Generalized gradient approximation made simple.
 https://dx.doi.org/10.1103/PhysRevLett.77.3865

 Goedecker, S; Teter, M; Hutter, J. 
 PHYSICAL REVIEW B, 54 (3), 1703-1710 (1996). 
 Separable dual-space Gaussian pseudopotentials.
 https://dx.doi.org/10.1103/PhysRevB.54.1703


 -------------------------------------------------------------------------------
 -                                                                             -
 -                                T I M I N G                                  -
 -                                                                             -
 -------------------------------------------------------------------------------
 SUBROUTINE                       CALLS  ASD         SELF TIME        TOTAL TIME
                                MAXIMUM       AVERAGE  MAXIMUM  AVERAGE  MAXIMUM
 CP2K                                 1  1.0    0.053    0.053  186.236  186.236
 qs_energies                          1  2.0    0.000    0.000  183.633  183.633
 scf_env_do_scf                       1  3.0    0.000    0.000  175.078  175.078
 scf_env_do_scf_inner_loop           17  4.0    0.007    0.007  162.178  162.178
 qs_ks_update_qs_env                 18  5.0    0.000    0.000  157.380  157.380
 rebuild_ks_matrix                   17  6.0    0.000    0.000  157.380  157.380
 qs_ks_build_kohn_sham_matrix        17  7.0    0.002    0.002  157.380  157.380
 pw_transfer                        372  9.5    0.016    0.016   95.991   95.991
 fft_wrap_pw1pw2                    355 10.5    0.003    0.003   95.826   95.826
 fft_wrap_pw1pw2_200                244 11.6    6.934    6.934   93.800   93.800
 qs_vxc_create                       17  8.0    0.000    0.000   90.707   90.707
 xc_vxc_pw_create                    17  9.0    1.113    1.113   90.707   90.707
 xc_rho_set_and_dset_create          17 10.0    0.517    0.517   60.880   60.880
 fft3d_s                            356 12.5   57.335   57.335   57.371   57.371
 pw_poisson_solve                    17  8.0    3.997    3.997   40.381   40.381
 xc_functional_eval                 323 10.1    0.001    0.001   39.042   39.042
 pbe_lda_eval                       323 11.1   39.042   39.042   39.042   39.042
 ps_wavelet_solve                    17  9.0   19.253   19.253   19.763   19.763
 qs_rho_update_rho                   18  5.0    0.000    0.000   17.522   17.522
 calculate_rho_elec                  18  6.0    1.420    1.420   17.482   17.482
 pw_scatter_s                       173 13.0   16.749   16.749   16.749   16.749
 density_rs2pw                       18  7.0    0.001    0.001   15.850   15.850
 pw_gather_s                        182 12.0   14.675   14.675   14.675   14.675
 init_scf_loop                        1  4.0    0.000    0.000   12.900   12.900
 sum_up_and_integrate                17  8.0    0.142    0.142    8.965    8.965
 integrate_v_rspace                  17  9.0    0.866    0.866    8.823    8.823
 prepare_gapw_den                    17  8.0    0.000    0.000    8.356    8.356
 potential_pw2rs                     17 10.0    0.016    0.016    7.955    7.955
 put_rho0_on_grid                    17  9.0    0.432    0.432    7.686    7.686
 dbcsr_multiply_generic            1006  8.7    0.022    0.022    5.582    5.582
 multiply_cannon                   1006  9.7    0.065    0.065    5.346    5.346
 scf_post_calculation_gpw             1  3.0    0.000    0.000    5.219    5.219
 -------------------------------------------------------------------------------

 The number of warnings for this run is : 1
 
 -------------------------------------------------------------------------------
  **** **** ******  **  PROGRAM ENDED AT                 2021-04-19 20:01:57.450
 ***** ** ***  *** **   PROGRAM RAN ON                                  nid04064
 **    ****   ******    PROGRAM RAN BY                                   ramador
 ***** **    ** ** **   PROGRAM PROCESS ID                                 15801
  **** **  *******  **  PROGRAM STOPPED IN   /scratch/snx3000/ramador/exercise_8
