       6
 i =        1, E =       -13.5042753206
  H         6.2377217763        8.3746648482        7.4999708002
  H         6.2424809679        6.6195530597        7.5000234503
  C         6.8220954720        7.4987666360        7.4999577291
  C         8.1738993706        7.5018993518        7.5000395483
  H         8.7603771589        8.3833951949        7.5000128333
  H         8.7646090258        6.6232447976        7.4999956321
       6
 i =        2, E =       -13.5049909460
  H         6.2649189777        8.3864213186        7.4999534096
  H         6.2692174851        6.6079272067        7.4999852115
  C         6.8253755092        7.4984074105        7.5000574520
  C         8.1764239477        7.5021064004        7.4999423570
  H         8.7306941693        8.3912190474        7.5000284993
  H         8.7346686851        6.6154504074        7.5000328374
       6
 i =        3, E =       -13.5050030802
  H         6.2642996857        8.3856243581        7.5000008286
  H         6.2691252911        6.6087586112        7.5000246694
  C         6.8255071609        7.4988454357        7.4998969688
  C         8.1749854142        7.5017666069        7.5001014623
  H         8.7313827589        8.3925842743        7.4999818813
  H         8.7359544745        6.6139666238        7.4999938801
       6
 i =        4, E =       -13.5050030469
  H         6.2642996857        8.3856243581        7.5000008286
  H         6.2691252911        6.6087586112        7.5000246694
  C         6.8255071609        7.4988454357        7.4998969688
  C         8.1749854142        7.5017666069        7.5001014623
  H         8.7313827589        8.3925842743        7.4999818813
  H         8.7359544745        6.6139666238        7.4999938801
