 DBCSR| CPU Multiplication driver                                            SMM
 DBCSR| Multrec recursion limit                                              512
 DBCSR| Multiplication stack size                                          30000
 DBCSR| Maximum elements for images                                    UNLIMITED
 DBCSR| Multiplicative factor virtual images                                   1
 DBCSR| Use multiplication densification                                       F
 DBCSR| Multiplication size stacks                                             3
 DBCSR| Number of 3D layers                                               SINGLE
 DBCSR| Use MPI memory allocation                                              T
 DBCSR| Use RMA algorithm                                                      F
 DBCSR| Use Communication thread                                               T
 DBCSR| Communication thread load                                             87
 DBCSR| ACC: Number of devices/node                                            1
 DBCSR| ACC: Number of priority stack-buffers                                 40
 DBCSR| ACC: Number of posterior stack-buffers                                80
 DBCSR| ACC: Number of priority streams                                        4
 DBCSR| ACC: Number of posterior streams                                       4
 DBCSR| ACC: Avoid driver after busy                                           F
 DBCSR| ACC: Process inhomogeneous stacks                                      T
 DBCSR| ACC: Min. flop for processing                                          0
 DBCSR| ACC: Min. flop for sorting                                          4000
 DBCSR| ACC: Number of binning bins                                         4096
 DBCSR| ACC: Size of binning bins                                             16


  **** **** ******  **  PROGRAM STARTED AT               2021-04-19 21:39:17.519
 ***** ** ***  *** **   PROGRAM STARTED ON                              nid01962
 **    ****   ******    PROGRAM STARTED BY                               ramador
 ***** **    ** ** **   PROGRAM PROCESS ID                                 28458
  **** **  *******  **  PROGRAM STARTED IN /scratch/snx3000/ramador/exercise_8/B
                                           3LYP/SZV

 CP2K| version string:                                          CP2K version 7.1
 CP2K| source code revision number:                                  git:e635599
 CP2K| cp2kflags: omp libint fftw3 libxc elpa parallel mpi3 scalapack acc smm_dn
 CP2K|            n smm dbcsr_acc max_contr=4
 CP2K| is freely available from                            https://www.cp2k.org/
 CP2K| Program compiled at                          Wed Mar 17 13:03:11 CET 2021
 CP2K| Program compiled on                                              daint101
 CP2K| Program compiled for                                CP2K-7.1-CrayGNU-cuda
 CP2K| Data directory path    /apps/daint/UES/jenkins/7.0.UP02-20.11/gpu/easybui
 CP2K| Input file name                                                ethene.inp

 GLOBAL| Force Environment number                                              1
 GLOBAL| Basis set file name                                        BASIS_MOLOPT
 GLOBAL| Potential file name                                      GTH_POTENTIALS
 GLOBAL| MM Potential file name                                     MM_POTENTIAL
 GLOBAL| Coordinate file name                                         ethene.xyz
 GLOBAL| Method name                                                        CP2K
 GLOBAL| Project name                                                     ethene
 GLOBAL| Preferred FFT library                                             FFTW3
 GLOBAL| Preferred diagonalization lib.                                     ELPA
 GLOBAL| Run type                                                        GEO_OPT
 GLOBAL| All-to-all communication in single precision                          F
 GLOBAL| FFTs using library dependent lengths                                  F
 GLOBAL| Global print level                                                  LOW
 GLOBAL| MPI I/O enabled                                                       T
 GLOBAL| Total number of message passing processes                             1
 GLOBAL| Number of threads for this process                                    1
 GLOBAL| This output is from process                                           0
 GLOBAL| CPU model name                Intel(R) Xeon(R) CPU E5-2690 v3 @ 2.60GHz
 GLOBAL| CPUID                                                              1002

 MEMORY| system memory details [Kb]
 MEMORY|                        rank 0           min           max       average
 MEMORY| MemTotal             65842332      65842332      65842332      65842332
 MEMORY| MemFree              61282844      61282844      61282844      61282844
 MEMORY| Buffers                  4400          4400          4400          4400
 MEMORY| Cached                1892820       1892820       1892820       1892820
 MEMORY| Slab                   482428        482428        482428        482428
 MEMORY| SReclaimable            42024         42024         42024         42024
 MEMORY| MemLikelyFree        63222088      63222088      63222088      63222088


 GENERATE|  Preliminary Number of Bonds generated:                             0
 GENERATE|  Achieved consistency in connectivity generation.

 *******************************************************************************
 *******************************************************************************
 **                                                                           **
 **     #####                         ##              ##                      **
 **    ##   ##            ##          ##              ##                      **
 **   ##     ##                       ##            ######                    **
 **   ##     ##  ##   ##  ##   #####  ##  ##   ####   ##    #####    #####    **
 **   ##     ##  ##   ##  ##  ##      ## ##   ##      ##   ##   ##  ##   ##   **
 **   ##  ## ##  ##   ##  ##  ##      ####     ###    ##   ######   ######    **
 **    ##  ###   ##   ##  ##  ##      ## ##      ##   ##   ##       ##        **
 **     #######   #####   ##   #####  ##  ##  ####    ##    #####   ##        **
 **           ##                                                    ##        **
 **                                                                           **
 **                                                ... make the atoms dance   **
 **                                                                           **
 **            Copyright (C) by CP2K developers group (2000 - 2019)           **
 **                                                                           **
 *******************************************************************************


 TOTAL NUMBERS AND MAXIMUM NUMBERS

  Total number of            - Atomic kinds:                                   2
                             - Atoms:                                          6
                             - Shell sets:                                     6
                             - Shells:                                         8
                             - Primitive Cartesian functions:                 42
                             - Cartesian basis functions:                     12
                             - Spherical basis functions:                     12

  Maximum angular momentum of- Orbital basis functions:                        1
                             - Local part of the GTH pseudopotential:          2
                             - Non-local part of the GTH pseudopotential:      0


 SCF PARAMETERS         Density guess:                                   RESTART
                        --------------------------------------------------------
                        max_scf:                                              50
                        max_scf_history:                                       0
                        max_diis:                                              4
                        --------------------------------------------------------
                        eps_scf:                                        1.00E-04
                        eps_scf_history:                                0.00E+00
                        eps_diis:                                       1.00E-01
                        eps_eigval:                                     1.00E-05
                        --------------------------------------------------------
                        level_shift [a.u.]:                                 0.00
                        --------------------------------------------------------
                        Outer loop SCF in use 
                        No variables optimised in outer loop
                        eps_scf                                         1.00E-04
                        max_scf                                              500
                        No outer loop optimization
                        step_size                                       5.00E-01

 PW_GRID| Information for grid number                                          1
 PW_GRID| Cutoff [a.u.]                                                    200.0
 PW_GRID| spherical cutoff:                                                   NO
 PW_GRID|   Bounds   1            -96      95                Points:         192
 PW_GRID|   Bounds   2            -96      95                Points:         192
 PW_GRID|   Bounds   3            -96      95                Points:         192
 PW_GRID| Volume element (a.u.^3)  0.3218E-02     Volume (a.u.^3)     22775.6292
 PW_GRID| Grid span                                                    FULLSPACE

 PW_GRID| Information for grid number                                          2
 PW_GRID| Number of the reference grid                                         1
 PW_GRID| Cutoff [a.u.]                                                     66.7
 PW_GRID| spherical cutoff:                                                   NO
 PW_GRID|   Bounds   1            -54      53                Points:         108
 PW_GRID|   Bounds   2            -54      53                Points:         108
 PW_GRID|   Bounds   3            -54      53                Points:         108
 PW_GRID| Volume element (a.u.^3)  0.1808E-01     Volume (a.u.^3)     22775.6292
 PW_GRID| Grid span                                                    FULLSPACE

 PW_GRID| Information for grid number                                          3
 PW_GRID| Number of the reference grid                                         1
 PW_GRID| Cutoff [a.u.]                                                     22.2
 PW_GRID| spherical cutoff:                                                   NO
 PW_GRID|   Bounds   1            -32      31                Points:          64
 PW_GRID|   Bounds   2            -32      31                Points:          64
 PW_GRID|   Bounds   3            -32      31                Points:          64
 PW_GRID| Volume element (a.u.^3)  0.8688E-01     Volume (a.u.^3)     22775.6292
 PW_GRID| Grid span                                                    FULLSPACE

 PW_GRID| Information for grid number                                          4
 PW_GRID| Number of the reference grid                                         1
 PW_GRID| Cutoff [a.u.]                                                      7.4
 PW_GRID| spherical cutoff:                                                   NO
 PW_GRID|   Bounds   1            -18      17                Points:          36
 PW_GRID|   Bounds   2            -18      17                Points:          36
 PW_GRID|   Bounds   3            -18      17                Points:          36
 PW_GRID| Volume element (a.u.^3)  0.4882         Volume (a.u.^3)     22775.6292
 PW_GRID| Grid span                                                    FULLSPACE

 POISSON| Solver                                                         WAVELET
 POISSON| Wavelet| Scaling function                                           40
 POISSON| Periodicity                                                       NONE

 RS_GRID| Information for grid number                                          1
 RS_GRID|   Bounds   1            -96      95                Points:         192
 RS_GRID|   Bounds   2            -96      95                Points:         192
 RS_GRID|   Bounds   3            -96      95                Points:         192

 RS_GRID| Information for grid number                                          2
 RS_GRID|   Bounds   1            -54      53                Points:         108
 RS_GRID|   Bounds   2            -54      53                Points:         108
 RS_GRID|   Bounds   3            -54      53                Points:         108

 RS_GRID| Information for grid number                                          3
 RS_GRID|   Bounds   1            -32      31                Points:          64
 RS_GRID|   Bounds   2            -32      31                Points:          64
 RS_GRID|   Bounds   3            -32      31                Points:          64

 RS_GRID| Information for grid number                                          4
 RS_GRID|   Bounds   1            -18      17                Points:          36
 RS_GRID|   Bounds   2            -18      17                Points:          36
 RS_GRID|   Bounds   3            -18      17                Points:          36

 BFGS| Use rational function optimization for step estimation:                NO
 BFGS| Use model Hessian for initial guess:                                  YES
 BFGS| Restart Hessian:                                                       NO
 BFGS| Trust radius:                                                       0.472

 *******************************************************************************
 ***                     STARTING GEOMETRY OPTIMIZATION                      ***
 ***                                   BFGS                                  ***
 *******************************************************************************

 Number of electrons:                                                         12
 Number of occupied orbitals:                                                  6
 Number of molecular orbitals:                                                 6

 Number of orbital functions:                                                 12
 Number of independent orbital functions:                                     12

 Extrapolation method: initial_guess

 *** WARNING in qs_initial_guess.F:280 :: User requested to restart the    ***
 *** wavefunction from the file named: ethene-RESTART.wfn. This file does  ***
 *** not exist. Please check the existence of the file or change properly  ***
 *** the value of the keyword WFN_RESTART_FILE_NAME. Calculation continues ***
 *** using ATOMIC GUESS.                                                   ***



 SCF WAVEFUNCTION OPTIMIZATION

  ----------------------------------- OT ---------------------------------------
  Minimizer      : DIIS                : direct inversion
                                         in the iterative subspace
                                         using   7 DIIS vectors
                                         safer DIIS on
  Preconditioner : FULL_SINGLE_INVERSE : inversion of 
                                         H + eS - 2*(Sc)(c^T*H*c+const)(Sc)^T
  Precond_solver : DEFAULT
  stepsize       :    0.08000000                  energy_gap     :    0.08000000
  eps_taylor     :   0.10000E-15                  max_taylor     :             4
  ----------------------------------- OT ---------------------------------------

  Step     Update method      Time    Convergence         Total energy    Change
  ------------------------------------------------------------------------------
     1 OT DIIS     0.80E-01   11.5     0.42645975       -12.5995801452 -1.26E+01
     2 OT DIIS     0.80E-01    8.5     0.24631561       -13.2321107817 -6.33E-01
     3 OT DIIS     0.80E-01    8.5     0.11189152       -13.3688792386 -1.37E-01
     4 OT DIIS     0.80E-01    8.5     0.05826517       -13.4113234402 -4.24E-02
     5 OT DIIS     0.80E-01    8.5     0.03242459       -13.4196456849 -8.32E-03
     6 OT DIIS     0.80E-01    8.5     0.02298018       -13.4258611959 -6.22E-03
     7 OT DIIS     0.80E-01    8.5     0.00642917       -13.4275165457 -1.66E-03
     8 OT DIIS     0.80E-01    8.5     0.00348054       -13.4276979981 -1.81E-04
     9 OT DIIS     0.80E-01    8.5     0.00123731       -13.4277574866 -5.95E-05
    10 OT DIIS     0.80E-01    8.5     0.00043037       -13.4277713094 -1.38E-05
    11 OT DIIS     0.80E-01    8.5     0.00023804       -13.4277725365 -1.23E-06
    12 OT DIIS     0.80E-01    8.5     0.00015225       -13.4277729222 -3.86E-07
    13 OT DIIS     0.80E-01    8.5     0.00006266       -13.4277731106 -1.88E-07

  *** SCF run converged in    13 steps ***


  Electronic density on regular grids:        -11.8890982092        0.1109017908
  Core density on regular grids:               12.0000000000       -0.0000000000
  Hard and soft densities (Lebedev):          -62.6472939541      -62.5363921786
  Total Rho_soft + Rho1_hard - Rho1_soft      -11.9999999847
  Total charge density (r-space):               0.0000000153
  Total Rho_soft + Rho0_soft (g-space):        -0.0000033014

  Overlap energy of the core charge distribution:               0.00000110899985
  Self energy of the core charge distribution:                -32.31191168900799
  Core Hamiltonian energy:                                     10.69926988998294
  Hartree energy:                                              25.02559729484918
  Exchange-correlation energy:                                 -3.79690922389579
  Hartree-Fock Exchange energy:                                -0.88984474879570

  GAPW| Exc from hard and soft atomic rho1:                    -0.06632817047471
  GAPW| local Eh = 1 center integrals:                        -12.08764757227875

  Total energy:                                               -13.42777311062097

  outer SCF iter =    1 RMS gradient =   0.63E-04 energy =        -13.4277731106
  outer SCF loop converged in   1 iterations or   13 steps

  
  Eigenvalues of the occupied subspace spin            1
 ---------------------------------------------
      -0.67360224     -0.48390629     -0.35229243     -0.35217142
      -0.23039319     -0.20279463
 Fermi Energy [eV] :   -5.518322
  
  Lowest Eigenvalues of the unoccupied subspace spin            1
 -----------------------------------------------------
  Reached convergence in           23  iterations 
       0.14211403
  
 HOMO - LUMO gap [eV] :    9.385442

 ENERGY| Total FORCE_EVAL ( QS ) energy (a.u.):              -13.427773142692880


 --------  Informations at step =     0 ------------
  Optimization Method        =                 BFGS
  Total Energy               =       -13.4277731427
  Used time                  =              131.732
 ---------------------------------------------------

 --------------------------
 OPTIMIZATION STEP:      1
 --------------------------

 Number of electrons:                                                         12
 Number of occupied orbitals:                                                  6
 Number of molecular orbitals:                                                 6

 Number of orbital functions:                                                 12
 Number of independent orbital functions:                                     12

 Extrapolation method: ASPC


 SCF WAVEFUNCTION OPTIMIZATION

  ----------------------------------- OT ---------------------------------------
  Minimizer      : DIIS                : direct inversion
                                         in the iterative subspace
                                         using   7 DIIS vectors
                                         safer DIIS on
  Preconditioner : FULL_SINGLE_INVERSE : inversion of 
                                         H + eS - 2*(Sc)(c^T*H*c+const)(Sc)^T
  Precond_solver : DEFAULT
  stepsize       :    0.08000000                  energy_gap     :    0.08000000
  eps_taylor     :   0.10000E-15                  max_taylor     :             4
  ----------------------------------- OT ---------------------------------------

  Step     Update method      Time    Convergence         Total energy    Change
  ------------------------------------------------------------------------------
     1 OT DIIS     0.80E-01    8.0     0.01521302       -13.5022597390 -1.35E+01
     2 OT DIIS     0.80E-01    8.5     0.01009851       -13.5033670608 -1.11E-03
     3 OT DIIS     0.80E-01    8.5     0.00152664       -13.5042564021 -8.89E-04
     4 OT DIIS     0.80E-01    8.5     0.00023559       -13.5042749033 -1.85E-05
     5 OT DIIS     0.80E-01    8.5     0.00005913       -13.5042752968 -3.94E-07

  *** SCF run converged in     5 steps ***


  Electronic density on regular grids:        -11.8866460515        0.1133539485
  Core density on regular grids:               12.0000000000       -0.0000000000
  Hard and soft densities (Lebedev):          -63.7038304032      -63.5904764697
  Total Rho_soft + Rho1_hard - Rho1_soft      -11.9999999851
  Total charge density (r-space):               0.0000000149
  Total Rho_soft + Rho0_soft (g-space):        -0.0000032289

  Overlap energy of the core charge distribution:               0.00000370314707
  Self energy of the core charge distribution:                -32.31191168900799
  Core Hamiltonian energy:                                     10.91063258912796
  Hartree energy:                                              24.83832929790501
  Exchange-correlation energy:                                 -3.88500422145766
  Hartree-Fock Exchange energy:                                -0.91904829806977

  GAPW| Exc from hard and soft atomic rho1:                    -0.06833533873256
  GAPW| local Eh = 1 center integrals:                        -12.06894133974855

  Total energy:                                               -13.50427529683649

  outer SCF iter =    1 RMS gradient =   0.59E-04 energy =        -13.5042752968
  outer SCF loop converged in   1 iterations or    5 steps

  
  Eigenvalues of the occupied subspace spin            1
 ---------------------------------------------
      -0.70219803     -0.53786041     -0.41341776     -0.36611954
      -0.29757010     -0.21147772
 Fermi Energy [eV] :   -5.754601
  
  Lowest Eigenvalues of the unoccupied subspace spin            1
 -----------------------------------------------------
  Reached convergence in           23  iterations 
       0.11736736
  
 HOMO - LUMO gap [eV] :    8.948330

 ENERGY| Total FORCE_EVAL ( QS ) energy (a.u.):              -13.504275320632946


 --------  Informations at step =     1 ------------
  Optimization Method        =                 BFGS
  Total Energy               =       -13.5042753206
  Real energy change         =        -0.0765021779
  Predicted change in energy =        -0.0652219232
  Scaling factor             =         0.0000000000
  Step size                  =         0.3177238982
  Trust radius               =         0.4724315332
  Decrease in energy         =                  YES
  Used time                  =               58.221

  Convergence check :
  Max. step size             =         0.3177238982
  Conv. limit for step size  =         0.0100000000
  Convergence in step size   =                   NO
  RMS step size              =         0.1553983320
  Conv. limit for RMS step   =         0.0030000000
  Convergence in RMS step    =                   NO
  Max. gradient              =         0.0104700956
  Conv. limit for gradients  =         0.0010000000
  Conv. for gradients        =                   NO
  RMS gradient               =         0.0045638528
  Conv. limit for RMS grad.  =         0.0003000000
  Conv. for gradients        =                   NO
 ---------------------------------------------------

 --------------------------
 OPTIMIZATION STEP:      2
 --------------------------

 Number of electrons:                                                         12
 Number of occupied orbitals:                                                  6
 Number of molecular orbitals:                                                 6

 Number of orbital functions:                                                 12
 Number of independent orbital functions:                                     12

 Extrapolation method: ASPC


 SCF WAVEFUNCTION OPTIMIZATION

  ----------------------------------- OT ---------------------------------------
  Minimizer      : DIIS                : direct inversion
                                         in the iterative subspace
                                         using   7 DIIS vectors
                                         safer DIIS on
  Preconditioner : FULL_SINGLE_INVERSE : inversion of 
                                         H + eS - 2*(Sc)(c^T*H*c+const)(Sc)^T
  Precond_solver : DEFAULT
  stepsize       :    0.08000000                  energy_gap     :    0.08000000
  eps_taylor     :   0.10000E-15                  max_taylor     :             4
  ----------------------------------- OT ---------------------------------------

  Step     Update method      Time    Convergence         Total energy    Change
  ------------------------------------------------------------------------------
     1 OT DIIS     0.80E-01    8.0     0.01334808       -13.5034225514 -1.35E+01
     2 OT DIIS     0.80E-01    8.5     0.00892032       -13.5042774640 -8.55E-04
     3 OT DIIS     0.80E-01    8.5     0.00126132       -13.5049784436 -7.01E-04
     4 OT DIIS     0.80E-01    8.5     0.00025089       -13.5049904669 -1.20E-05
     5 OT DIIS     0.80E-01    8.5     0.00006473       -13.5049909158 -4.49E-07

  *** SCF run converged in     5 steps ***


  Electronic density on regular grids:        -11.8866026745        0.1133973255
  Core density on regular grids:               12.0000000000       -0.0000000000
  Hard and soft densities (Lebedev):          -63.5072535998      -63.3938562895
  Total Rho_soft + Rho1_hard - Rho1_soft      -11.9999999849
  Total charge density (r-space):               0.0000000151
  Total Rho_soft + Rho0_soft (g-space):        -0.0000031305

  Overlap energy of the core charge distribution:               0.00000433152587
  Self energy of the core charge distribution:                -32.31191168900799
  Core Hamiltonian energy:                                     10.93186039114597
  Hartree energy:                                              24.82264359205619
  Exchange-correlation energy:                                 -3.89123630957544
  Hartree-Fock Exchange energy:                                -0.92093550924011

  GAPW| Exc from hard and soft atomic rho1:                    -0.06841188633556
  GAPW| local Eh = 1 center integrals:                        -12.06700383640786

  Total energy:                                               -13.50499091583893

  outer SCF iter =    1 RMS gradient =   0.65E-04 energy =        -13.5049909158
  outer SCF loop converged in   1 iterations or    5 steps

  
  Eigenvalues of the occupied subspace spin            1
 ---------------------------------------------
      -0.70542853     -0.53698067     -0.42130204     -0.36097125
      -0.30400928     -0.21231456
 Fermi Energy [eV] :   -5.777373
  
  Lowest Eigenvalues of the unoccupied subspace spin            1
 -----------------------------------------------------
  Reached convergence in           17  iterations 
       0.11710869
  
 HOMO - LUMO gap [eV] :    8.964063

 ENERGY| Total FORCE_EVAL ( QS ) energy (a.u.):              -13.504990946027700


 --------  Informations at step =     2 ------------
  Optimization Method        =                 BFGS
  Total Energy               =       -13.5049909460
  Real energy change         =        -0.0007156254
  Predicted change in energy =        -0.0007799860
  Scaling factor             =         0.0000000000
  Step size                  =         0.0565790441
  Trust radius               =         0.4724315332
  Decrease in energy         =                  YES
  Used time                  =               58.101

  Convergence check :
  Max. step size             =         0.0565790441
  Conv. limit for step size  =         0.0100000000
  Convergence in step size   =                   NO
  RMS step size              =         0.0268901678
  Conv. limit for RMS step   =         0.0030000000
  Convergence in RMS step    =                   NO
  Max. gradient              =         0.0048825608
  Conv. limit for gradients  =         0.0010000000
  Conv. for gradients        =                   NO
  RMS gradient               =         0.0014324073
  Conv. limit for RMS grad.  =         0.0003000000
  Conv. for gradients        =                   NO
 ---------------------------------------------------

 --------------------------
 OPTIMIZATION STEP:      3
 --------------------------

 Number of electrons:                                                         12
 Number of occupied orbitals:                                                  6
 Number of molecular orbitals:                                                 6

 Number of orbital functions:                                                 12
 Number of independent orbital functions:                                     12

 Extrapolation method: ASPC


 SCF WAVEFUNCTION OPTIMIZATION

  ----------------------------------- OT ---------------------------------------
  Minimizer      : DIIS                : direct inversion
                                         in the iterative subspace
                                         using   7 DIIS vectors
                                         safer DIIS on
  Preconditioner : FULL_SINGLE_INVERSE : inversion of 
                                         H + eS - 2*(Sc)(c^T*H*c+const)(Sc)^T
  Precond_solver : DEFAULT
  stepsize       :    0.08000000                  energy_gap     :    0.08000000
  eps_taylor     :   0.10000E-15                  max_taylor     :             4
  ----------------------------------- OT ---------------------------------------

  Step     Update method      Time    Convergence         Total energy    Change
  ------------------------------------------------------------------------------
     1 OT DIIS     0.80E-01    8.0     0.00504200       -13.5047780525 -1.35E+01
     2 OT DIIS     0.80E-01    8.5     0.00336387       -13.5048997320 -1.22E-04
     3 OT DIIS     0.80E-01    8.5     0.00060972       -13.5050000948 -1.00E-04
     4 OT DIIS     0.80E-01    8.6     0.00015508       -13.5050028944 -2.80E-06
     5 OT DIIS     0.80E-01    8.5     0.00003113       -13.5050030719 -1.77E-07

  *** SCF run converged in     5 steps ***


  Electronic density on regular grids:        -11.8865826407        0.1134173593
  Core density on regular grids:               12.0000000000       -0.0000000000
  Hard and soft densities (Lebedev):          -63.5250688140      -63.4116514699
  Total Rho_soft + Rho1_hard - Rho1_soft      -11.9999999848
  Total charge density (r-space):               0.0000000152
  Total Rho_soft + Rho0_soft (g-space):        -0.0000031272

  Overlap energy of the core charge distribution:               0.00000425262013
  Self energy of the core charge distribution:                -32.31191168900799
  Core Hamiltonian energy:                                     10.93132038437982
  Hartree energy:                                              24.82275646718364
  Exchange-correlation energy:                                 -3.89096601012283
  Hartree-Fock Exchange energy:                                -0.92086470994003

  GAPW| Exc from hard and soft atomic rho1:                    -0.06841940499489
  GAPW| local Eh = 1 center integrals:                        -12.06692236200704

  Total energy:                                               -13.50500307188919

  outer SCF iter =    1 RMS gradient =   0.31E-04 energy =        -13.5050030719
  outer SCF loop converged in   1 iterations or    5 steps

  
  Eigenvalues of the occupied subspace spin            1
 ---------------------------------------------
      -0.70555788     -0.53655302     -0.42096865     -0.36119798
      -0.30332259     -0.21257517
 Fermi Energy [eV] :   -5.784465
  
  Lowest Eigenvalues of the unoccupied subspace spin            1
 -----------------------------------------------------
  Reached convergence in           51  iterations 
       0.11765231
  
 HOMO - LUMO gap [eV] :    8.985947

 ENERGY| Total FORCE_EVAL ( QS ) energy (a.u.):              -13.505003080155403


 --------  Informations at step =     3 ------------
  Optimization Method        =                 BFGS
  Total Energy               =       -13.5050030802
  Real energy change         =        -0.0000121341
  Predicted change in energy =        -0.0000138597
  Scaling factor             =         0.0000000000
  Step size                  =         0.0028039445
  Trust radius               =         0.4724315332
  Decrease in energy         =                  YES
  Used time                  =               59.127

  Convergence check :
  Max. step size             =         0.0028039445
  Conv. limit for step size  =         0.0100000000
  Convergence in step size   =                  YES
  RMS step size              =         0.0014339158
  Conv. limit for RMS step   =         0.0030000000
  Convergence in RMS step    =                  YES
  Max. gradient              =         0.0006527190
  Conv. limit for gradients  =         0.0010000000
  Conv. in gradients         =                  YES
  RMS gradient               =         0.0002692490
  Conv. limit for RMS grad.  =         0.0003000000
  Conv. in RMS gradients     =                  YES
 ---------------------------------------------------

 *******************************************************************************
 ***                    GEOMETRY OPTIMIZATION COMPLETED                      ***
 *******************************************************************************

                    Reevaluating energy at the minimum

 Number of electrons:                                                         12
 Number of occupied orbitals:                                                  6
 Number of molecular orbitals:                                                 6

 Number of orbital functions:                                                 12
 Number of independent orbital functions:                                     12

 Extrapolation method: ASPC


 SCF WAVEFUNCTION OPTIMIZATION

  ----------------------------------- OT ---------------------------------------
  Minimizer      : DIIS                : direct inversion
                                         in the iterative subspace
                                         using   7 DIIS vectors
                                         safer DIIS on
  Preconditioner : FULL_SINGLE_INVERSE : inversion of 
                                         H + eS - 2*(Sc)(c^T*H*c+const)(Sc)^T
  Precond_solver : DEFAULT
  stepsize       :    0.08000000                  energy_gap     :    0.08000000
  eps_taylor     :   0.10000E-15                  max_taylor     :             4
  ----------------------------------- OT ---------------------------------------

  Step     Update method      Time    Convergence         Total energy    Change
  ------------------------------------------------------------------------------
     1 OT DIIS     0.80E-01    8.0     0.00168145       -13.5049803155 -1.35E+01
     2 OT DIIS     0.80E-01    8.5     0.00104491       -13.5049933661 -1.31E-05
     3 OT DIIS     0.80E-01    8.5     0.00033754       -13.5050020619 -8.70E-06
     4 OT DIIS     0.80E-01    8.5     0.00006163       -13.5050030469 -9.85E-07

  *** SCF run converged in     4 steps ***


  Electronic density on regular grids:        -11.8865855082        0.1134144918
  Core density on regular grids:               12.0000000000       -0.0000000000
  Hard and soft densities (Lebedev):          -63.5269757119      -63.4135612353
  Total Rho_soft + Rho1_hard - Rho1_soft      -11.9999999848
  Total charge density (r-space):               0.0000000152
  Total Rho_soft + Rho0_soft (g-space):        -0.0000031272

  Overlap energy of the core charge distribution:               0.00000425262013
  Self energy of the core charge distribution:                -32.31191168900799
  Core Hamiltonian energy:                                     10.93130376581544
  Hartree energy:                                              24.82280339569424
  Exchange-correlation energy:                                 -3.89097007438228
  Hartree-Fock Exchange energy:                                -0.92086676853316

  GAPW| Exc from hard and soft atomic rho1:                    -0.06841843781173
  GAPW| local Eh = 1 center integrals:                        -12.06694749130443

  Total energy:                                               -13.50500304690977

  outer SCF iter =    1 RMS gradient =   0.62E-04 energy =        -13.5050030469
  outer SCF loop converged in   1 iterations or    4 steps

  
  Eigenvalues of the occupied subspace spin            1
 ---------------------------------------------
      -0.70556606     -0.53655783     -0.42097173     -0.36120419
      -0.30332696     -0.21258444
 Fermi Energy [eV] :   -5.784717
  
  Lowest Eigenvalues of the unoccupied subspace spin            1
 -----------------------------------------------------
  Reached convergence in           35  iterations 
       0.11764187
  
 HOMO - LUMO gap [eV] :    8.985915

 ENERGY| Total FORCE_EVAL ( QS ) energy (a.u.):              -13.505003046909769


 -------------------------------------------------------------------------------
 -                                                                             -
 -                                DBCSR STATISTICS                             -
 -                                                                             -
 -------------------------------------------------------------------------------
 COUNTER                                    TOTAL       BLAS       SMM       ACC
 flops     6 x     1 x     1                  288       0.0%    100.0%      0.0%
 flops     6 x     1 x     6                  432       0.0%    100.0%      0.0%
 flops     6 x     1 x     4                  576       0.0%    100.0%      0.0%
 flops     1 x     7 x     1                 1344       0.0%    100.0%      0.0%
 flops     7 x     7 x     1                 2352       0.0%    100.0%      0.0%
 flops     4 x     7 x     1                 2688       0.0%    100.0%      0.0%
 flops     1 x     7 x     4                 2688       0.0%    100.0%      0.0%
 flops     7 x     1 x     1                 4312       0.0%    100.0%      0.0%
 flops     1 x     1 x     7                 4312       0.0%    100.0%      0.0%
 flops     7 x     7 x     4                 4704       0.0%    100.0%      0.0%
 flops     4 x     7 x     4                 5376       0.0%    100.0%      0.0%
 flops     1 x     1 x     6                 5808       0.0%    100.0%      0.0%
 flops     7 x     1 x     7                 7546       0.0%    100.0%      0.0%
 flops     7 x     1 x     4                 8624       0.0%    100.0%      0.0%
 flops     4 x     1 x     7                 8624       0.0%    100.0%      0.0%
 flops     1 x     4 x     6                 8832       0.0%    100.0%      0.0%
 flops     4 x     1 x     6                 9408       0.0%    100.0%      0.0%
 flops     1 x     1 x     1                19754       0.0%    100.0%      0.0%
 flops     4 x     4 x     6                26496       0.0%    100.0%      0.0%
 flops     1 x     6 x     1                27648       0.0%    100.0%      0.0%
 flops     1 x     1 x     4                29360       0.0%    100.0%      0.0%
 flops     4 x     1 x     1                31936       0.0%    100.0%      0.0%
 flops     6 x     6 x     1                38592       0.0%    100.0%      0.0%
 flops     1 x     6 x     6                46080       0.0%    100.0%      0.0%
 flops     4 x     1 x     4                49408       0.0%    100.0%      0.0%
 flops     4 x     6 x     1                55296       0.0%    100.0%      0.0%
 flops     1 x     6 x     4                55296       0.0%    100.0%      0.0%
 flops     6 x     6 x     4                77184       0.0%    100.0%      0.0%
 flops     4 x     6 x     6                92160       0.0%    100.0%      0.0%
 flops     6 x     6 x     6               104112       0.0%    100.0%      0.0%
 flops     4 x     6 x     4               110592       0.0%     99.3%      0.7%
 flops inhomo. stacks                           0       0.0%      0.0%      0.0%
 flops total                       841.828000E+03       0.0%     99.9%      0.1%
 flops max/rank                    841.828000E+03       0.0%     99.9%      0.1%
 matmuls inhomo. stacks                         0       0.0%      0.0%      0.0%
 matmuls total                              28569       0.0%    100.0%      0.0%
 number of processed stacks                  5799       0.0%    100.0%      0.0%
 average stack size                                     0.0       4.9       4.0
 marketing flops                   876.244000E+03
 -------------------------------------------------------------------------------
 # multiplications                           2861
 max memory usage/rank               1.927221E+09
 # max total images/rank                        1
 # max 3D layers                                1
 # MPI messages exchanged                       0
 MPI messages size (bytes):
  total size                         0.000000E+00
  min size                           0.000000E+00
  max size                           0.000000E+00
  average size                       0.000000E+00
 MPI breakdown and total messages size (bytes):
             size <=      128                   0                        0
       128 < size <=     8192                   0                        0
      8192 < size <=    32768                   0                        0
     32768 < size <=   131072                   0                        0
    131072 < size <=  4194304                   0                        0
   4194304 < size <= 16777216                   0                        0
  16777216 < size                               0                        0
 -------------------------------------------------------------------------------
 -                                                                             -
 -                      DBCSR MESSAGE PASSING PERFORMANCE                      -
 -                                                                             -
 -------------------------------------------------------------------------------
 ROUTINE             CALLS      AVE VOLUME [Bytes]
 MP_Group              284
 MP_Bcast               32                     12.
 MP_Allreduce         9483                      8.
 MP_Alltoall         11918                     92.
 MP_Wait             68664
 MP_ISend            11388                    127.
 MP_IRecv            11388                    127.
 MP_Memory           76544
 -------------------------------------------------------------------------------

 MEMORY| Estimated peak process memory [MiB]                                1839

 -------------------------------------------------------------------------------
 ----                             MULTIGRID INFO                            ----
 -------------------------------------------------------------------------------
 count for grid        1:           1606          cutoff [a.u.]          200.00
 count for grid        2:           1733          cutoff [a.u.]           66.67
 count for grid        3:           1205          cutoff [a.u.]           22.22
 count for grid        4:           1375          cutoff [a.u.]            7.41
 total gridlevel count  :           5919

 -------------------------------------------------------------------------------
 -                                                                             -
 -                         MESSAGE PASSING PERFORMANCE                         -
 -                                                                             -
 -------------------------------------------------------------------------------

 ROUTINE             CALLS      AVE VOLUME [Bytes]
 MP_Group                4
 MP_Bcast             1576                   1699.
 MP_Allreduce         3560                    323.
 MP_Sync             92352
 MP_Alltoall            72              113246208.
 -------------------------------------------------------------------------------


 -------------------------------------------------------------------------------
 -                                                                             -
 -                           R E F E R E N C E S                               -
 -                                                                             -
 -------------------------------------------------------------------------------
 
 CP2K version 7.1, the CP2K developers group (2019).
 CP2K is freely available from https://www.cp2k.org/ .

 Schuett, Ole; Messmer, Peter; Hutter, Juerg; VandeVondele, Joost. 
 Electronic Structure Calculations on Graphics Processing Units, John
 Wiley & Sons, Ltd, 173-190 (2016). 
 GPU-Accelerated Sparse Matrix-Matrix Multiplication for
 Linear Scaling Density Functional Theory.
 https://dx.doi.org/10.1002/9781118670712.ch8

 Borstnik, U; VandeVondele, J; Weber, V; Hutter, J. 
 PARALLEL COMPUTING, 40 (5-6), 47-58 (2014). 
 Sparse matrix multiplication: The distributed block-compressed sparse
 row library.
 https://dx.doi.org/10.1016/j.parco.2014.03.012

 Hutter, J; Iannuzzi, M; Schiffmann, F; VandeVondele, J. 
 WIREs Comput Mol Sci., 4 (1), 15-25 (2014). 
 CP2K: atomistic simulations of condensed matter systems.
 https://dx.doi.org/10.1002/wcms.1159

 Marek, A; Blum, V; Johanni, R; Havu, V; Lang, B; Auckenthaler, T;
 Heinecke, A; Bungartz, H; Lederer, H. 
 Journal of Physics: Condensed Matter, 26 (21), (2014). 
 The ELPA library: scalable parallel eigenvalue solutions for
 electronic structure
 theory and computational science.
 https://dx.doi.org/10.1088/0953-8984/26/21/213201

 Guidon, M; Hutter, J; VandeVondele, J. 
 JOURNAL OF CHEMICAL THEORY AND COMPUTATION, 5 (11), 3010-3021 (2009). 
 Robust Periodic Hartree-Fock Exchange for Large-Scale Simulations Using
 Gaussian Basis Sets.
 https://dx.doi.org/10.1021/ct900494g

 Guidon, M; Schiffmann, F; Hutter, J; VandeVondele, J. 
 JOURNAL OF CHEMICAL PHYSICS, 128 (21), 214104 (2008). 
 Ab initio molecular dynamics using hybrid density functionals.
 https://dx.doi.org/10.1063/1.2931945

 VandeVondele, J; Hutter, J. 
 JOURNAL OF CHEMICAL PHYSICS, 127 (11), 114105 (2007). 
 Gaussian basis sets for accurate calculations on molecular systems in
 gas and condensed phases.
 https://dx.doi.org/10.1063/1.2770708

 Genovese, L; Deutsch, T; Goedecker, S. 
 JOURNAL OF CHEMICAL PHYSICS, 127 (5), 054704 (2007). 
 Efficient and accurate three-dimensional Poisson solver for surface
 problems.
 https://dx.doi.org/10.1063/1.2754685

 Genovese, L; Deutsch, T; Neelov, A; Goedecker, S; Beylkin, G. 
 JOURNAL OF CHEMICAL PHYSICS, 125 (7), 074105 (2006). 
 Efficient solution of Poisson's equation with free boundary conditions.
 https://dx.doi.org/10.1063/1.2335442

 Krack, M. 
 THEORETICAL CHEMISTRY ACCOUNTS, 114 (1-3), 145-152 (2005). 
 Pseudopotentials for H to Kr optimized for gradient-corrected
 exchange-correlation functionals.
 https://dx.doi.org/10.1007/s00214-005-0655-y

 Frigo, M; Johnson, SG. 
 PROCEEDINGS OF THE IEEE, 93 (2), 216-231 (2005). 
 The design and implementation of FFTW3.
 https://dx.doi.org/10.1109/JPROC.2004.840301

 Kolafa, J. 
 JOURNAL OF COMPUTATIONAL CHEMISTRY, 25 (3), 335-342 (2004). 
 Time-reversible always stable predictor-corrector method for molecular dynamics of polarizable molecules.
 https://dx.doi.org/10.1002/jcc.10385

 VandeVondele, J; Hutter, J. 
 JOURNAL OF CHEMICAL PHYSICS, 118 (10), 4365-4369 (2003). 
 An efficient orbital transformation method for electronic structure
 calculations.
 https://dx.doi.org/10.1063/1.1543154

 Lippert, G; Hutter, J; Parrinello, M. 
 THEORETICAL CHEMISTRY ACCOUNTS, 103 (2), 124-140 (1999). 
 The Gaussian and augmented-plane-wave density functional method for ab
 initio molecular dynamics simulations.
 https://dx.doi.org/10.1007/s002140050523

 Krack, M; Parrinello, M. 
 PHYSICAL CHEMISTRY CHEMICAL PHYSICS, 2 (10), 2105-2112 (2000). 
 All-electron ab-initio molecular dynamics.
 https://dx.doi.org/10.1039/b001167n

 Hartwigsen, C; Goedecker, S; Hutter, J. 
 PHYSICAL REVIEW B, 58 (7), 3641-3662 (1998). 
 Relativistic separable dual-space Gaussian pseudopotentials from H to Rn.
 https://dx.doi.org/10.1103/PhysRevB.58.3641

 Goedecker, S; Teter, M; Hutter, J. 
 PHYSICAL REVIEW B, 54 (3), 1703-1710 (1996). 
 Separable dual-space Gaussian pseudopotentials.
 https://dx.doi.org/10.1103/PhysRevB.54.1703

 BECKE, AD. PHYSICAL REVIEW A, 38 (6), 3098-3100 (1988). 
 DENSITY-FUNCTIONAL EXCHANGE-ENERGY APPROXIMATION WITH CORRECT
 ASYMPTOTIC-BEHAVIOR.
 https://dx.doi.org/10.1103/PhysRevA.38.3098

 LEE, CT; YANG, WT; PARR, RG. 
 PHYSICAL REVIEW B, 37 (2), 785-789 (1988). 
 DEVELOPMENT OF THE COLLE-SALVETTI CORRELATION-ENERGY FORMULA INTO A
 FUNCTIONAL OF THE ELECTRON-DENSITY.
 https://dx.doi.org/10.1103/PhysRevB.37.785


 -------------------------------------------------------------------------------
 -                                                                             -
 -                                T I M I N G                                  -
 -                                                                             -
 -------------------------------------------------------------------------------
 SUBROUTINE                       CALLS  ASD         SELF TIME        TOTAL TIME
                                MAXIMUM       AVERAGE  MAXIMUM  AVERAGE  MAXIMUM
 CP2K                                 1  1.0    0.059    0.059  348.614  348.614
 cp_geo_opt                           1  2.0    0.000    0.000  346.069  346.069
 geoopt_bfgs                          1  3.0    0.001    0.001  346.069  346.069
 cp_eval_at                           5  4.0    0.000    0.000  345.994  345.994
 qs_forces                            4  5.0    0.000    0.000  307.135  307.135
 qs_energies                          5  5.8    0.000    0.000  301.948  301.948
 rebuild_ks_matrix                   36  9.6    0.000    0.000  290.407  290.407
 qs_ks_build_kohn_sham_matrix        36 10.6    0.004    0.004  290.407  290.407
 scf_env_do_scf                       5  6.8    0.000    0.000  277.317  277.317
 qs_ks_update_qs_env                 37  8.9    0.000    0.000  246.378  246.378
 scf_env_do_scf_inner_loop           32  7.9    0.015    0.015  233.894  233.894
 pw_transfer                        811 13.1    0.036    0.036  210.938  210.938
 fft_wrap_pw1pw2                    775 14.1    0.007    0.007  210.595  210.595
 fft_wrap_pw1pw2_200                526 15.2   15.155   15.155  206.048  206.048
 qs_vxc_create                       36 11.6    0.000    0.000  138.875  138.875
 xc_vxc_pw_create                    36 12.6    2.316    2.316  138.875  138.875
 fft3d_s                            776 16.1  125.645  125.645  125.680  125.680
 pw_poisson_solve                    36 11.6    8.615    8.615   83.372   83.372
 xc_rho_set_and_dset_create          36 13.6   13.612   13.612   74.359   74.359
 qs_ks_update_qs_env_forces           4  6.0    0.000    0.000   44.030   44.030
 init_scf_loop                        5  7.8    0.000    0.000   43.422   43.422
 ps_wavelet_solve                    36 12.6   40.388   40.388   41.489   41.489
 pw_scatter_s                       371 16.6   36.980   36.980   36.980   36.980
 qs_rho_update_rho                   37  9.0    0.000    0.000   34.814   34.814
 calculate_rho_elec                  37 10.0    1.552    1.552   34.805   34.805
 density_rs2pw                       37 11.0    0.002    0.002   32.841   32.841
 pw_gather_s                        404 15.6   32.562   32.562   32.562   32.562
 scf_post_calculation_gpw             5  6.8    0.000    0.000   18.771   18.771
 sum_up_and_integrate                36 11.6    0.310    0.310   17.846   17.846
 integrate_v_rspace                  36 12.6    0.473    0.473   17.535   17.535
 potential_pw2rs                     36 13.6    0.035    0.035   17.058   17.058
 prepare_gapw_den                    36 11.6    0.000    0.000   16.664   16.664
 put_rho0_on_grid                    36 12.6    0.905    0.905   16.567   16.567
 hfx_ks_matrix                       36 11.6    0.000    0.000   16.231   16.231
 xc_functional_eval                1404 13.6    0.002    0.002   14.183   14.183
 derivatives_four_center              4 10.0    0.000    0.000   13.758   13.758
 derivatives_four_center_main         4 11.0    0.000    0.000   13.758   13.758
 derivatives_four_center_bin          4 12.0   13.758   13.758   13.758   13.758
 calculate_wavefunction              10  8.8    0.026    0.026    8.922    8.922
 qs_scf_post_unocc_cubes              5  7.8    0.521    0.521    8.441    8.441
 qs_scf_post_occ_cubes                5  7.8    0.010    0.010    7.778    7.778
 lyp_lda_eval                       468 14.6    7.491    7.491    7.491    7.491
 -------------------------------------------------------------------------------

 The number of warnings for this run is : 1
 
 -------------------------------------------------------------------------------
  **** **** ******  **  PROGRAM ENDED AT                 2021-04-19 21:45:06.586
 ***** ** ***  *** **   PROGRAM RAN ON                                  nid01962
 **    ****   ******    PROGRAM RAN BY                                   ramador
 ***** **    ** ** **   PROGRAM PROCESS ID                                 28458
  **** **  *******  **  PROGRAM STOPPED IN /scratch/snx3000/ramador/exercise_8/B
                                           3LYP/SZV
