 DBCSR| CPU Multiplication driver                                            SMM
 DBCSR| Multrec recursion limit                                              512
 DBCSR| Multiplication stack size                                          30000
 DBCSR| Maximum elements for images                                    UNLIMITED
 DBCSR| Multiplicative factor virtual images                                   1
 DBCSR| Use multiplication densification                                       F
 DBCSR| Multiplication size stacks                                             3
 DBCSR| Number of 3D layers                                               SINGLE
 DBCSR| Use MPI memory allocation                                              T
 DBCSR| Use RMA algorithm                                                      F
 DBCSR| Use Communication thread                                               T
 DBCSR| Communication thread load                                             87
 DBCSR| ACC: Number of devices/node                                            1
 DBCSR| ACC: Number of priority stack-buffers                                 40
 DBCSR| ACC: Number of posterior stack-buffers                                80
 DBCSR| ACC: Number of priority streams                                        4
 DBCSR| ACC: Number of posterior streams                                       4
 DBCSR| ACC: Avoid driver after busy                                           F
 DBCSR| ACC: Process inhomogeneous stacks                                      T
 DBCSR| ACC: Min. flop for processing                                          0
 DBCSR| ACC: Min. flop for sorting                                          4000
 DBCSR| ACC: Number of binning bins                                         4096
 DBCSR| ACC: Size of binning bins                                             16


  **** **** ******  **  PROGRAM STARTED AT               2021-04-19 21:49:57.597
 ***** ** ***  *** **   PROGRAM STARTED ON                              nid01962
 **    ****   ******    PROGRAM STARTED BY                               ramador
 ***** **    ** ** **   PROGRAM PROCESS ID                                 29178
  **** **  *******  **  PROGRAM STARTED IN /scratch/snx3000/ramador/exercise_8/B
                                           3LYP/SZV

 CP2K| version string:                                          CP2K version 7.1
 CP2K| source code revision number:                                  git:e635599
 CP2K| cp2kflags: omp libint fftw3 libxc elpa parallel mpi3 scalapack acc smm_dn
 CP2K|            n smm dbcsr_acc max_contr=4
 CP2K| is freely available from                            https://www.cp2k.org/
 CP2K| Program compiled at                          Wed Mar 17 13:03:11 CET 2021
 CP2K| Program compiled on                                              daint101
 CP2K| Program compiled for                                CP2K-7.1-CrayGNU-cuda
 CP2K| Data directory path    /apps/daint/UES/jenkins/7.0.UP02-20.11/gpu/easybui
 CP2K| Input file name                                                    ts.inp

 GLOBAL| Force Environment number                                              1
 GLOBAL| Basis set file name                                        BASIS_MOLOPT
 GLOBAL| Potential file name                                      GTH_POTENTIALS
 GLOBAL| MM Potential file name                                     MM_POTENTIAL
 GLOBAL| Coordinate file name                                             ts.xyz
 GLOBAL| Method name                                                        CP2K
 GLOBAL| Project name                                                         ts
 GLOBAL| Preferred FFT library                                             FFTW3
 GLOBAL| Preferred diagonalization lib.                                     ELPA
 GLOBAL| Run type                                                         ENERGY
 GLOBAL| All-to-all communication in single precision                          F
 GLOBAL| FFTs using library dependent lengths                                  F
 GLOBAL| Global print level                                                  LOW
 GLOBAL| MPI I/O enabled                                                       T
 GLOBAL| Total number of message passing processes                             1
 GLOBAL| Number of threads for this process                                    1
 GLOBAL| This output is from process                                           0
 GLOBAL| CPU model name                Intel(R) Xeon(R) CPU E5-2690 v3 @ 2.60GHz
 GLOBAL| CPUID                                                              1002

 MEMORY| system memory details [Kb]
 MEMORY|                        rank 0           min           max       average
 MEMORY| MemTotal             65842332      65842332      65842332      65842332
 MEMORY| MemFree              61269100      61269100      61269100      61269100
 MEMORY| Buffers                  5996          5996          5996          5996
 MEMORY| Cached                1901780       1901780       1901780       1901780
 MEMORY| Slab                   485056        485056        485056        485056
 MEMORY| SReclaimable            43712         43712         43712         43712
 MEMORY| MemLikelyFree        63220588      63220588      63220588      63220588


 GENERATE|  Preliminary Number of Bonds generated:                             0
 GENERATE|  Achieved consistency in connectivity generation.

 *******************************************************************************
 *******************************************************************************
 **                                                                           **
 **     #####                         ##              ##                      **
 **    ##   ##            ##          ##              ##                      **
 **   ##     ##                       ##            ######                    **
 **   ##     ##  ##   ##  ##   #####  ##  ##   ####   ##    #####    #####    **
 **   ##     ##  ##   ##  ##  ##      ## ##   ##      ##   ##   ##  ##   ##   **
 **   ##  ## ##  ##   ##  ##  ##      ####     ###    ##   ######   ######    **
 **    ##  ###   ##   ##  ##  ##      ## ##      ##   ##   ##       ##        **
 **     #######   #####   ##   #####  ##  ##  ####    ##    #####   ##        **
 **           ##                                                    ##        **
 **                                                                           **
 **                                                ... make the atoms dance   **
 **                                                                           **
 **            Copyright (C) by CP2K developers group (2000 - 2019)           **
 **                                                                           **
 *******************************************************************************


 TOTAL NUMBERS AND MAXIMUM NUMBERS

  Total number of            - Atomic kinds:                                   3
                             - Atoms:                                          9
                             - Shell sets:                                     9
                             - Shells:                                        12
                             - Primitive Cartesian functions:                 63
                             - Cartesian basis functions:                     18
                             - Spherical basis functions:                     18

  Maximum angular momentum of- Orbital basis functions:                        1
                             - Local part of the GTH pseudopotential:          2
                             - Non-local part of the GTH pseudopotential:      0


 SCF PARAMETERS         Density guess:                                   RESTART
                        --------------------------------------------------------
                        max_scf:                                              50
                        max_scf_history:                                       0
                        max_diis:                                              4
                        --------------------------------------------------------
                        eps_scf:                                        1.00E-04
                        eps_scf_history:                                0.00E+00
                        eps_diis:                                       1.00E-01
                        eps_eigval:                                     1.00E-05
                        --------------------------------------------------------
                        level_shift [a.u.]:                                 0.00
                        --------------------------------------------------------
                        Outer loop SCF in use 
                        No variables optimised in outer loop
                        eps_scf                                         1.00E-04
                        max_scf                                              500
                        No outer loop optimization
                        step_size                                       5.00E-01

 PW_GRID| Information for grid number                                          1
 PW_GRID| Cutoff [a.u.]                                                    200.0
 PW_GRID| spherical cutoff:                                                   NO
 PW_GRID|   Bounds   1            -96      95                Points:         192
 PW_GRID|   Bounds   2            -96      95                Points:         192
 PW_GRID|   Bounds   3            -96      95                Points:         192
 PW_GRID| Volume element (a.u.^3)  0.3218E-02     Volume (a.u.^3)     22775.6292
 PW_GRID| Grid span                                                    FULLSPACE

 PW_GRID| Information for grid number                                          2
 PW_GRID| Number of the reference grid                                         1
 PW_GRID| Cutoff [a.u.]                                                     66.7
 PW_GRID| spherical cutoff:                                                   NO
 PW_GRID|   Bounds   1            -54      53                Points:         108
 PW_GRID|   Bounds   2            -54      53                Points:         108
 PW_GRID|   Bounds   3            -54      53                Points:         108
 PW_GRID| Volume element (a.u.^3)  0.1808E-01     Volume (a.u.^3)     22775.6292
 PW_GRID| Grid span                                                    FULLSPACE

 PW_GRID| Information for grid number                                          3
 PW_GRID| Number of the reference grid                                         1
 PW_GRID| Cutoff [a.u.]                                                     22.2
 PW_GRID| spherical cutoff:                                                   NO
 PW_GRID|   Bounds   1            -32      31                Points:          64
 PW_GRID|   Bounds   2            -32      31                Points:          64
 PW_GRID|   Bounds   3            -32      31                Points:          64
 PW_GRID| Volume element (a.u.^3)  0.8688E-01     Volume (a.u.^3)     22775.6292
 PW_GRID| Grid span                                                    FULLSPACE

 PW_GRID| Information for grid number                                          4
 PW_GRID| Number of the reference grid                                         1
 PW_GRID| Cutoff [a.u.]                                                      7.4
 PW_GRID| spherical cutoff:                                                   NO
 PW_GRID|   Bounds   1            -18      17                Points:          36
 PW_GRID|   Bounds   2            -18      17                Points:          36
 PW_GRID|   Bounds   3            -18      17                Points:          36
 PW_GRID| Volume element (a.u.^3)  0.4882         Volume (a.u.^3)     22775.6292
 PW_GRID| Grid span                                                    FULLSPACE

 POISSON| Solver                                                         WAVELET
 POISSON| Wavelet| Scaling function                                           40
 POISSON| Periodicity                                                       NONE

 RS_GRID| Information for grid number                                          1
 RS_GRID|   Bounds   1            -96      95                Points:         192
 RS_GRID|   Bounds   2            -96      95                Points:         192
 RS_GRID|   Bounds   3            -96      95                Points:         192

 RS_GRID| Information for grid number                                          2
 RS_GRID|   Bounds   1            -54      53                Points:         108
 RS_GRID|   Bounds   2            -54      53                Points:         108
 RS_GRID|   Bounds   3            -54      53                Points:         108

 RS_GRID| Information for grid number                                          3
 RS_GRID|   Bounds   1            -32      31                Points:          64
 RS_GRID|   Bounds   2            -32      31                Points:          64
 RS_GRID|   Bounds   3            -32      31                Points:          64

 RS_GRID| Information for grid number                                          4
 RS_GRID|   Bounds   1            -18      17                Points:          36
 RS_GRID|   Bounds   2            -18      17                Points:          36
 RS_GRID|   Bounds   3            -18      17                Points:          36

 Number of electrons:                                                         20
 Number of occupied orbitals:                                                 10
 Number of molecular orbitals:                                                10

 Number of orbital functions:                                                 18
 Number of independent orbital functions:                                     18

 Extrapolation method: initial_guess

 *** WARNING in qs_initial_guess.F:280 :: User requested to restart the   ***
 *** wavefunction from the file named: ts-RESTART.wfn. This file does not ***
 *** exist. Please check the existence of the file or change properly the ***
 *** value of the keyword WFN_RESTART_FILE_NAME. Calculation continues    ***
 *** using ATOMIC GUESS.                                                  ***



 SCF WAVEFUNCTION OPTIMIZATION

  ----------------------------------- OT ---------------------------------------
  Minimizer      : DIIS                : direct inversion
                                         in the iterative subspace
                                         using   7 DIIS vectors
                                         safer DIIS on
  Preconditioner : FULL_SINGLE_INVERSE : inversion of 
                                         H + eS - 2*(Sc)(c^T*H*c+const)(Sc)^T
  Precond_solver : DEFAULT
  stepsize       :    0.08000000                  energy_gap     :    0.08000000
  eps_taylor     :   0.10000E-15                  max_taylor     :             4
  ----------------------------------- OT ---------------------------------------

  Step     Update method      Time    Convergence         Total energy    Change
  ------------------------------------------------------------------------------
     1 OT DIIS     0.80E-01   13.5     0.30316770       -28.1912423316 -2.82E+01
     2 OT DIIS     0.80E-01    8.6     0.30919209       -29.2428110883 -1.05E+00
     3 OT DIIS     0.80E-01    8.6     0.23822873       -29.8503884961 -6.08E-01
     4 OT DIIS     0.80E-01    8.6     0.14315967       -30.2360002765 -3.86E-01
     5 OT DIIS     0.80E-01    8.6     0.06315681       -30.3604630363 -1.24E-01
     6 OT DIIS     0.80E-01    8.6     0.03747447       -30.4335684155 -7.31E-02
     7 OT DIIS     0.80E-01    8.6     0.02016148       -30.4476612201 -1.41E-02
     8 OT DIIS     0.80E-01    8.6     0.01026377       -30.4537044023 -6.04E-03
     9 OT DIIS     0.80E-01    8.6     0.01025444       -30.4549908224 -1.29E-03
    10 OT DIIS     0.80E-01    8.6     0.00444636       -30.4559912756 -1.00E-03
    11 OT DIIS     0.80E-01    8.6     0.00170830       -30.4562019689 -2.11E-04
    12 OT DIIS     0.80E-01    8.6     0.00093438       -30.4562826215 -8.07E-05
    13 OT DIIS     0.80E-01    8.6     0.00057022       -30.4563084277 -2.58E-05
    14 OT DIIS     0.80E-01    8.6     0.00030976       -30.4563205536 -1.21E-05
    15 OT DIIS     0.80E-01    8.6     0.00018733       -30.4563238093 -3.26E-06
    16 OT DIIS     0.80E-01    8.6     0.00010029       -30.4563250941 -1.28E-06
    17 OT DIIS     0.80E-01    8.6     0.00006328       -30.4563253756 -2.81E-07

  *** SCF run converged in    17 steps ***


  Electronic density on regular grids:        -19.5309612905        0.4690387095
  Core density on regular grids:               20.0000000000       -0.0000000000
  Hard and soft densities (Lebedev):          -94.5634840763      -94.0944454246
  Total Rho_soft + Rho1_hard - Rho1_soft      -19.9999999422
  Total charge density (r-space):               0.0000000578
  Total Rho_soft + Rho0_soft (g-space):        -0.0000048504

  Overlap energy of the core charge distribution:               0.00000136846112
  Self energy of the core charge distribution:                -76.65906668574564
  Core Hamiltonian energy:                                     24.41020810100034
  Hartree energy:                                              44.50464752947720
  Exchange-correlation energy:                                 -6.99824370730579
  Hartree-Fock Exchange energy:                                -1.70035829528552

  GAPW| Exc from hard and soft atomic rho1:                    -0.36064614338381
  GAPW| local Eh = 1 center integrals:                        -13.65286754277915

  Total energy:                                               -30.45632537556125

  outer SCF iter =    1 RMS gradient =   0.63E-04 energy =        -30.4563253756
  outer SCF loop converged in   1 iterations or   17 steps

  
  Eigenvalues of the occupied subspace spin            1
 ---------------------------------------------
      -0.90464767     -0.70751071     -0.53597420     -0.43752842
      -0.41463208     -0.34104373     -0.29656478     -0.26862691
      -0.24701698     -0.13095784
 Fermi Energy [eV] :   -3.563544
  
  Lowest Eigenvalues of the unoccupied subspace spin            1
 -----------------------------------------------------
  Reached convergence in           15  iterations 
       0.09463601
  
 HOMO - LUMO gap [eV] :    6.138721

 ENERGY| Total FORCE_EVAL ( QS ) energy (a.u.):              -30.456325375561253


 -------------------------------------------------------------------------------
 -                                                                             -
 -                                DBCSR STATISTICS                             -
 -                                                                             -
 -------------------------------------------------------------------------------
 COUNTER                                    TOTAL       BLAS       SMM       ACC
 flops    10 x     1 x     1                  120       0.0%    100.0%      0.0%
 flops    10 x     1 x    10                  200       0.0%    100.0%      0.0%
 flops    10 x     1 x     4                  240       0.0%    100.0%      0.0%
 flops     1 x    11 x     1                  792       0.0%    100.0%      0.0%
 flops    11 x     1 x     1                 1056       0.0%    100.0%      0.0%
 flops     1 x     1 x    11                 1056       0.0%    100.0%      0.0%
 flops    11 x    11 x     1                 1452       0.0%    100.0%      0.0%
 flops     4 x    11 x     1                 1584       0.0%    100.0%      0.0%
 flops     1 x    11 x     4                 1584       0.0%    100.0%      0.0%
 flops    11 x     1 x    11                 1936       0.0%    100.0%      0.0%
 flops    11 x     1 x     4                 2112       0.0%    100.0%      0.0%
 flops     4 x     1 x    11                 2112       0.0%    100.0%      0.0%
 flops    11 x    11 x     4                 2904       0.0%    100.0%      0.0%
 flops     4 x    11 x     4                 3168       0.0%    100.0%      0.0%
 flops     1 x     1 x     1                 3926       0.0%    100.0%      0.0%
 flops     1 x     1 x     4                 6456       0.0%    100.0%      0.0%
 flops     4 x     1 x     1                 6864       0.0%    100.0%      0.0%
 flops     1 x     1 x    10                 8100       0.0%    100.0%      0.0%
 flops     4 x     1 x     4                11520       0.0%    100.0%      0.0%
 flops     1 x     4 x    10                13680       0.0%    100.0%      0.0%
 flops     4 x     1 x    10                13920       0.0%    100.0%      0.0%
 flops     4 x     4 x    10                36480       0.0%    100.0%      0.0%
 flops     1 x    10 x     1                43200       0.0%    100.0%      0.0%
 flops    10 x    10 x     1                82800       0.0%    100.0%      0.0%
 flops     4 x    10 x     1                86400       0.0%    100.0%      0.0%
 flops     1 x    10 x     4                86400       0.0%    100.0%      0.0%
 flops     1 x    10 x    10               102000       0.0%    100.0%      0.0%
 flops    10 x    10 x     4               165600       0.0%    100.0%      0.0%
 flops     4 x    10 x     4               172800       0.0%     98.3%      1.7%
 flops     4 x    10 x    10               204000       0.0%    100.0%      0.0%
 flops    10 x    10 x    10               294000       0.0%    100.0%      0.0%
 flops inhomo. stacks                           0       0.0%      0.0%      0.0%
 flops total                         1.358462E+06       0.0%     99.8%      0.2%
 flops max/rank                      1.358462E+06       0.0%     99.8%      0.2%
 matmuls inhomo. stacks                         0       0.0%      0.0%      0.0%
 matmuls total                              11497       0.0%     99.9%      0.1%
 number of processed stacks                  1205       0.0%     99.9%      0.1%
 average stack size                                     0.0       9.5       9.0
 marketing flops                     1.413434E+06
 -------------------------------------------------------------------------------
 # multiplications                            600
 max memory usage/rank               1.926406E+09
 # max total images/rank                        1
 # max 3D layers                                1
 # MPI messages exchanged                       0
 MPI messages size (bytes):
  total size                         0.000000E+00
  min size                           0.000000E+00
  max size                           0.000000E+00
  average size                       0.000000E+00
 MPI breakdown and total messages size (bytes):
             size <=      128                   0                        0
       128 < size <=     8192                   0                        0
      8192 < size <=    32768                   0                        0
     32768 < size <=   131072                   0                        0
    131072 < size <=  4194304                   0                        0
   4194304 < size <= 16777216                   0                        0
  16777216 < size                               0                        0
 -------------------------------------------------------------------------------
 -                                                                             -
 -                      DBCSR MESSAGE PASSING PERFORMANCE                      -
 -                                                                             -
 -------------------------------------------------------------------------------
 ROUTINE             CALLS      AVE VOLUME [Bytes]
 MP_Group               55
 MP_Bcast               32                     12.
 MP_Allreduce         2146                      9.
 MP_Alltoall          2394                    249.
 MP_Wait             14400
 MP_ISend             2390                    222.
 MP_IRecv             2390                    222.
 MP_Memory           15176
 -------------------------------------------------------------------------------

 MEMORY| Estimated peak process memory [MiB]                                1838

 -------------------------------------------------------------------------------
 ----                             MULTIGRID INFO                            ----
 -------------------------------------------------------------------------------
 count for grid        1:           2540          cutoff [a.u.]          200.00
 count for grid        2:           1693          cutoff [a.u.]           66.67
 count for grid        3:           1333          cutoff [a.u.]           22.22
 count for grid        4:           1091          cutoff [a.u.]            7.41
 total gridlevel count  :           6657

 -------------------------------------------------------------------------------
 -                                                                             -
 -                         MESSAGE PASSING PERFORMANCE                         -
 -                                                                             -
 -------------------------------------------------------------------------------

 ROUTINE             CALLS      AVE VOLUME [Bytes]
 MP_Group                4
 MP_Bcast              803                   1283.
 MP_Allreduce         1642                    504.
 MP_Sync             18521
 MP_Alltoall            34              113246208.
 -------------------------------------------------------------------------------


 -------------------------------------------------------------------------------
 -                                                                             -
 -                           R E F E R E N C E S                               -
 -                                                                             -
 -------------------------------------------------------------------------------
 
 CP2K version 7.1, the CP2K developers group (2019).
 CP2K is freely available from https://www.cp2k.org/ .

 Schuett, Ole; Messmer, Peter; Hutter, Juerg; VandeVondele, Joost. 
 Electronic Structure Calculations on Graphics Processing Units, John
 Wiley & Sons, Ltd, 173-190 (2016). 
 GPU-Accelerated Sparse Matrix-Matrix Multiplication for
 Linear Scaling Density Functional Theory.
 https://dx.doi.org/10.1002/9781118670712.ch8

 Borstnik, U; VandeVondele, J; Weber, V; Hutter, J. 
 PARALLEL COMPUTING, 40 (5-6), 47-58 (2014). 
 Sparse matrix multiplication: The distributed block-compressed sparse
 row library.
 https://dx.doi.org/10.1016/j.parco.2014.03.012

 Hutter, J; Iannuzzi, M; Schiffmann, F; VandeVondele, J. 
 WIREs Comput Mol Sci., 4 (1), 15-25 (2014). 
 CP2K: atomistic simulations of condensed matter systems.
 https://dx.doi.org/10.1002/wcms.1159

 Marek, A; Blum, V; Johanni, R; Havu, V; Lang, B; Auckenthaler, T;
 Heinecke, A; Bungartz, H; Lederer, H. 
 Journal of Physics: Condensed Matter, 26 (21), (2014). 
 The ELPA library: scalable parallel eigenvalue solutions for
 electronic structure
 theory and computational science.
 https://dx.doi.org/10.1088/0953-8984/26/21/213201

 Guidon, M; Hutter, J; VandeVondele, J. 
 JOURNAL OF CHEMICAL THEORY AND COMPUTATION, 5 (11), 3010-3021 (2009). 
 Robust Periodic Hartree-Fock Exchange for Large-Scale Simulations Using
 Gaussian Basis Sets.
 https://dx.doi.org/10.1021/ct900494g

 Guidon, M; Schiffmann, F; Hutter, J; VandeVondele, J. 
 JOURNAL OF CHEMICAL PHYSICS, 128 (21), 214104 (2008). 
 Ab initio molecular dynamics using hybrid density functionals.
 https://dx.doi.org/10.1063/1.2931945

 VandeVondele, J; Hutter, J. 
 JOURNAL OF CHEMICAL PHYSICS, 127 (11), 114105 (2007). 
 Gaussian basis sets for accurate calculations on molecular systems in
 gas and condensed phases.
 https://dx.doi.org/10.1063/1.2770708

 Genovese, L; Deutsch, T; Goedecker, S. 
 JOURNAL OF CHEMICAL PHYSICS, 127 (5), 054704 (2007). 
 Efficient and accurate three-dimensional Poisson solver for surface
 problems.
 https://dx.doi.org/10.1063/1.2754685

 Genovese, L; Deutsch, T; Neelov, A; Goedecker, S; Beylkin, G. 
 JOURNAL OF CHEMICAL PHYSICS, 125 (7), 074105 (2006). 
 Efficient solution of Poisson's equation with free boundary conditions.
 https://dx.doi.org/10.1063/1.2335442

 Krack, M. 
 THEORETICAL CHEMISTRY ACCOUNTS, 114 (1-3), 145-152 (2005). 
 Pseudopotentials for H to Kr optimized for gradient-corrected
 exchange-correlation functionals.
 https://dx.doi.org/10.1007/s00214-005-0655-y

 Frigo, M; Johnson, SG. 
 PROCEEDINGS OF THE IEEE, 93 (2), 216-231 (2005). 
 The design and implementation of FFTW3.
 https://dx.doi.org/10.1109/JPROC.2004.840301

 VandeVondele, J; Hutter, J. 
 JOURNAL OF CHEMICAL PHYSICS, 118 (10), 4365-4369 (2003). 
 An efficient orbital transformation method for electronic structure
 calculations.
 https://dx.doi.org/10.1063/1.1543154

 Lippert, G; Hutter, J; Parrinello, M. 
 THEORETICAL CHEMISTRY ACCOUNTS, 103 (2), 124-140 (1999). 
 The Gaussian and augmented-plane-wave density functional method for ab
 initio molecular dynamics simulations.
 https://dx.doi.org/10.1007/s002140050523

 Krack, M; Parrinello, M. 
 PHYSICAL CHEMISTRY CHEMICAL PHYSICS, 2 (10), 2105-2112 (2000). 
 All-electron ab-initio molecular dynamics.
 https://dx.doi.org/10.1039/b001167n

 Hartwigsen, C; Goedecker, S; Hutter, J. 
 PHYSICAL REVIEW B, 58 (7), 3641-3662 (1998). 
 Relativistic separable dual-space Gaussian pseudopotentials from H to Rn.
 https://dx.doi.org/10.1103/PhysRevB.58.3641

 Goedecker, S; Teter, M; Hutter, J. 
 PHYSICAL REVIEW B, 54 (3), 1703-1710 (1996). 
 Separable dual-space Gaussian pseudopotentials.
 https://dx.doi.org/10.1103/PhysRevB.54.1703

 BECKE, AD. PHYSICAL REVIEW A, 38 (6), 3098-3100 (1988). 
 DENSITY-FUNCTIONAL EXCHANGE-ENERGY APPROXIMATION WITH CORRECT
 ASYMPTOTIC-BEHAVIOR.
 https://dx.doi.org/10.1103/PhysRevA.38.3098

 LEE, CT; YANG, WT; PARR, RG. 
 PHYSICAL REVIEW B, 37 (2), 785-789 (1988). 
 DEVELOPMENT OF THE COLLE-SALVETTI CORRELATION-ENERGY FORMULA INTO A
 FUNCTIONAL OF THE ELECTRON-DENSITY.
 https://dx.doi.org/10.1103/PhysRevB.37.785


 -------------------------------------------------------------------------------
 -                                                                             -
 -                                T I M I N G                                  -
 -                                                                             -
 -------------------------------------------------------------------------------
 SUBROUTINE                       CALLS  ASD         SELF TIME        TOTAL TIME
                                MAXIMUM       AVERAGE  MAXIMUM  AVERAGE  MAXIMUM
 CP2K                                 1  1.0    0.057    0.057  160.315  160.315
 qs_energies                          1  2.0    0.000    0.000  157.763  157.763
 scf_env_do_scf                       1  3.0    0.000    0.000  151.501  151.501
 scf_env_do_scf_inner_loop           17  4.0    0.008    0.008  138.226  138.226
 qs_ks_update_qs_env                 18  5.0    0.000    0.000  134.422  134.422
 rebuild_ks_matrix                   17  6.0    0.000    0.000  134.422  134.422
 qs_ks_build_kohn_sham_matrix        17  7.0    0.002    0.002  134.422  134.422
 pw_transfer                        372  9.5    0.017    0.017   97.951   97.951
 fft_wrap_pw1pw2                    355 10.5    0.003    0.003   97.781   97.781
 fft_wrap_pw1pw2_200                244 11.6    7.080    7.080   95.754   95.754
 qs_vxc_create                       17  8.0    0.000    0.000   65.929   65.929
 xc_vxc_pw_create                    17  9.0    1.097    1.097   65.929   65.929
 fft3d_s                            356 12.5   58.327   58.327   58.361   58.361
 pw_poisson_solve                    17  8.0    4.058    4.058   40.957   40.957
 xc_rho_set_and_dset_create          17 10.0    6.429    6.429   35.460   35.460
 ps_wavelet_solve                    17  9.0   19.371   19.371   19.892   19.892
 qs_rho_update_rho                   18  5.0    0.000    0.000   17.304   17.304
 calculate_rho_elec                  18  6.0    1.050    1.050   17.294   17.294
 pw_scatter_s                       173 13.0   17.210   17.210   17.210   17.210
 density_rs2pw                       18  7.0    0.001    0.001   16.033   16.033
 pw_gather_s                        182 12.0   15.031   15.031   15.031   15.031
 init_scf_loop                        1  4.0    0.000    0.000   13.275   13.275
 sum_up_and_integrate                17  8.0    0.145    0.145    8.663    8.663
 integrate_v_rspace                  17  9.0    0.418    0.418    8.519    8.519
 potential_pw2rs                     17 10.0    0.016    0.016    8.098    8.098
 prepare_gapw_den                    17  8.0    0.000    0.000    7.926    7.926
 put_rho0_on_grid                    17  9.0    0.428    0.428    7.853    7.853
 xc_functional_eval                 969 10.1    0.002    0.002    7.004    7.004
 scf_post_calculation_gpw             1  3.0    0.000    0.000    4.216    4.216
 lyp_lda_eval                       323 11.1    3.710    3.710    3.710    3.710
 pw_derive                          102 10.5    3.291    3.291    3.291    3.291
 -------------------------------------------------------------------------------

 The number of warnings for this run is : 1
 
 -------------------------------------------------------------------------------
  **** **** ******  **  PROGRAM ENDED AT                 2021-04-19 21:52:38.409
 ***** ** ***  *** **   PROGRAM RAN ON                                  nid01962
 **    ****   ******    PROGRAM RAN BY                                   ramador
 ***** **    ** ** **   PROGRAM PROCESS ID                                 29178
  **** **  *******  **  PROGRAM STOPPED IN /scratch/snx3000/ramador/exercise_8/B
                                           3LYP/SZV
