
     Program PWSCF v.7.1 starts on 20Mar2023 at 11:53:31 

     This program is part of the open-source Quantum ESPRESSO suite
     for quantum simulation of materials; please cite
         "P. Giannozzi et al., J. Phys.:Condens. Matter 21 395502 (2009);
         "P. Giannozzi et al., J. Phys.:Condens. Matter 29 465901 (2017);
         "P. Giannozzi et al., J. Chem. Phys. 152 154105 (2020);
          URL http://www.quantum-espresso.org", 
     in publications or presentations arising from this work. More details at
     http://www.quantum-espresso.org/quote

     Parallel version (MPI), running on    12 processors

     MPI processes distributed on     2 nodes
     215367 MiB available memory on the printing compute node when the environment starts
 
     Waiting for input...
     Reading input from standard input

     Current dimensions of program PWSCF are:
     Max number of different atomic species (ntypx) = 10
     Max number of k-points (npk) =  40000
     Max angular momentum in pseudopotentials (lmaxx) =  4

     Atomic positions and unit cell read from directory:
     ./7agnr_2uc.save/
     Atomic positions from file used, from input discarded
 
     Found identity + (  0.5000  0.0000  0.0000) symmetry
     This is a supercell, fractional translations are disabled
 
     K-points division:     npool     =       2
     R & G space division:  proc/nbgrp/npool/nimage =       6
     Subspace diagonalization in iterative solution of the eigenvalue problem:
     a serial algorithm will be used

 
     Parallelization info
     --------------------
     sticks:   dense  smooth     PW     G-vecs:    dense   smooth      PW
     Min        1955     977    281               182185    64396    9884
     Max        1956     980    283               182188    64397    9885
     Sum       11731    5867   1689              1093113   386381   59309
 
     Using Slab Decomposition
 


     bravais-lattice index     =            8
     lattice parameter (alat)  =      16.2512  a.u.
     unit-cell volume          =   17410.2011 (a.u.)^3
     number of atoms/cell      =           36
     number of atomic types    =            2
     number of electrons       =       120.00
     number of Kohn-Sham states=          100
     kinetic-energy cutoff     =      30.0000  Ry
     charge density cutoff     =     240.0000  Ry
     Exchange-correlation= PBE
                           (   1   4   3   4   0   0   0)

     celldm(1)=  16.251176  celldm(2)=   2.325648  celldm(3)=   1.744236
     celldm(4)=   0.000000  celldm(5)=   0.000000  celldm(6)=   0.000000

     crystal axes: (cart. coord. in units of alat)
               a(1) = (   1.000000   0.000000   0.000000 )  
               a(2) = (   0.000000   2.325648   0.000000 )  
               a(3) = (   0.000000   0.000000   1.744236 )  

     reciprocal axes: (cart. coord. in units 2 pi/alat)
               b(1) = (  1.000000  0.000000  0.000000 )  
               b(2) = (  0.000000  0.429988  0.000000 )  
               b(3) = (  0.000000  0.000000  0.573317 )  


     PseudoPot. # 1 for C  read from file:
     ../pseudo/C_pbe_v1.2.uspp.F.UPF
     MD5 check sum: d1aef80898a10debaa0f26306b886e00
     Pseudo is Ultrasoft + core correction, Zval =  4.0
     Generated by new atomic code, or converted to UPF format
     Using radial grid of  721 points,  4 beta functions with: 
                l(1) =   0
                l(2) =   0
                l(3) =   1
                l(4) =   1
     Q(r) pseudized with  8 coefficients,  rinner =    1.100   1.100   1.100


     PseudoPot. # 2 for H  read from file:
     ../pseudo/H.pbe-rrkjus_psl.0.1.UPF
     MD5 check sum: 36633979392af7100e6f6632747262d3
     Pseudo is Ultrasoft, Zval =  1.0
     Generated using "atomic" code by A. Dal Corso  v.5.0.99 svn rev. 10869
     Using radial grid of  929 points,  2 beta functions with: 
                l(1) =   0
                l(2) =   0
     Q(r) pseudized with 0 coefficients 


     atomic species   valence    mass     pseudopotential
        C              4.00    12.01070     C ( 1.00)
        H              1.00     1.00794     H ( 1.00)

      4 Sym. Ops. (no inversion) found



   Cartesian axes

     site n.     atom                  positions (alat units)
         1           C   tau(   1) = (   0.1703196   0.9933305   0.8721182  )
         2           C   tau(   2) = (   0.3296804   0.9933305   0.8721182  )
         3           C   tau(   3) = (   0.0837534   1.1335328   0.8721182  )
         4           C   tau(   4) = (   0.1665376   1.2764887   0.8721182  )
         5           C   tau(   5) = (   0.3334624   1.2764887   0.8721182  )
         6           C   tau(   6) = (   0.4162466   1.1335328   0.8721182  )
         7           C   tau(   7) = (   0.4173326   1.4202574   0.8721182  )
         8           C   tau(   8) = (   0.3334624   1.5640261   0.8721182  )
         9           C   tau(   9) = (   0.1665376   1.5640261   0.8721182  )
        10           C   tau(  10) = (   0.0826674   1.4202574   0.8721182  )
        11           C   tau(  11) = (   0.0837534   1.7069820   0.8721182  )
        12           C   tau(  12) = (   0.1703196   1.8471844   0.8721182  )
        13           C   tau(  13) = (   0.3296804   1.8471844   0.8721182  )
        14           C   tau(  14) = (   0.4162466   1.7069820   0.8721182  )
        15           H   tau(  15) = (   0.1105389   1.9586245   0.8721182  )
        16           H   tau(  16) = (   0.3894611   1.9586245   0.8721182  )
        17           H   tau(  17) = (   0.1105389   0.8818904   0.8721182  )
        18           H   tau(  18) = (   0.3894611   0.8818904   0.8721182  )
        19           C   tau(  19) = (   0.6703196   0.9933305   0.8721182  )
        20           C   tau(  20) = (   0.8296804   0.9933305   0.8721182  )
        21           C   tau(  21) = (   0.5837534   1.1335328   0.8721182  )
        22           C   tau(  22) = (   0.6665376   1.2764887   0.8721182  )
        23           C   tau(  23) = (   0.8334624   1.2764887   0.8721182  )
        24           C   tau(  24) = (   0.9162466   1.1335328   0.8721182  )
        25           C   tau(  25) = (   0.9173326   1.4202574   0.8721182  )
        26           C   tau(  26) = (   0.8334624   1.5640261   0.8721182  )
        27           C   tau(  27) = (   0.6665376   1.5640261   0.8721182  )
        28           C   tau(  28) = (   0.5826674   1.4202574   0.8721182  )
        29           C   tau(  29) = (   0.5837534   1.7069820   0.8721182  )
        30           C   tau(  30) = (   0.6703196   1.8471844   0.8721182  )
        31           C   tau(  31) = (   0.8296804   1.8471844   0.8721182  )
        32           C   tau(  32) = (   0.9162466   1.7069820   0.8721182  )
        33           H   tau(  33) = (   0.6105389   1.9586245   0.8721182  )
        34           H   tau(  34) = (   0.8894611   1.9586245   0.8721182  )
        35           H   tau(  35) = (   0.6105389   0.8818904   0.8721182  )
        36           H   tau(  36) = (   0.8894611   0.8818904   0.8721182  )

     number of k points=    30  Gaussian smearing, width (Ry)=  0.0010
                       cart. coord. in units 2pi/alat
        k(    1) = (   0.0000000   0.0000000   0.0000000), wk =   0.0666667
        k(    2) = (   0.0344830   0.0000000   0.0000000), wk =   0.0666667
        k(    3) = (   0.0689660   0.0000000   0.0000000), wk =   0.0666667
        k(    4) = (   0.1034480   0.0000000   0.0000000), wk =   0.0666667
        k(    5) = (   0.1379310   0.0000000   0.0000000), wk =   0.0666667
        k(    6) = (   0.1724140   0.0000000   0.0000000), wk =   0.0666667
        k(    7) = (   0.2068970   0.0000000   0.0000000), wk =   0.0666667
        k(    8) = (   0.2413790   0.0000000   0.0000000), wk =   0.0666667
        k(    9) = (   0.2758620   0.0000000   0.0000000), wk =   0.0666667
        k(   10) = (   0.3103450   0.0000000   0.0000000), wk =   0.0666667
        k(   11) = (   0.3448280   0.0000000   0.0000000), wk =   0.0666667
        k(   12) = (   0.3793100   0.0000000   0.0000000), wk =   0.0666667
        k(   13) = (   0.4137930   0.0000000   0.0000000), wk =   0.0666667
        k(   14) = (   0.4482760   0.0000000   0.0000000), wk =   0.0666667
        k(   15) = (   0.4827590   0.0000000   0.0000000), wk =   0.0666667
        k(   16) = (   0.5172410   0.0000000   0.0000000), wk =   0.0666667
        k(   17) = (   0.5517240   0.0000000   0.0000000), wk =   0.0666667
        k(   18) = (   0.5862070   0.0000000   0.0000000), wk =   0.0666667
        k(   19) = (   0.6206900   0.0000000   0.0000000), wk =   0.0666667
        k(   20) = (   0.6551720   0.0000000   0.0000000), wk =   0.0666667
        k(   21) = (   0.6896550   0.0000000   0.0000000), wk =   0.0666667
        k(   22) = (   0.7241380   0.0000000   0.0000000), wk =   0.0666667
        k(   23) = (   0.7586210   0.0000000   0.0000000), wk =   0.0666667
        k(   24) = (   0.7931030   0.0000000   0.0000000), wk =   0.0666667
        k(   25) = (   0.8275860   0.0000000   0.0000000), wk =   0.0666667
        k(   26) = (   0.8620690   0.0000000   0.0000000), wk =   0.0666667
        k(   27) = (   0.8965520   0.0000000   0.0000000), wk =   0.0666667
        k(   28) = (   0.9310340   0.0000000   0.0000000), wk =   0.0666667
        k(   29) = (   0.9655170   0.0000000   0.0000000), wk =   0.0666667
        k(   30) = (   1.0000000   0.0000000   0.0000000), wk =   0.0666667

     Dense  grid:  1093113 G-vectors     FFT dimensions: (  81, 192, 144)

     Smooth grid:   386381 G-vectors     FFT dimensions: (  60, 135, 100)

     Estimated max dynamical RAM per process >     198.50 MB

     Estimated total dynamical RAM >       2.33 GB

     The potential is recalculated from file :
     ./7agnr_2uc.save/charge-density


     negative rho (up, down):  2.361E-03 0.000E+00
     Starting wfcs are  120 randomized atomic wfcs

     Band Structure Calculation
     Davidson diagonalization with overlap
     c_bands:  1 eigenvalues not converged
     c_bands:  1 eigenvalues not converged
     c_bands:  1 eigenvalues not converged
     c_bands:  1 eigenvalues not converged

     ethr =  8.33E-12,  avg # of iterations = 94.5

     total cpu time spent up to now is      352.6 secs

     End of band structure calculation

          k = 0.0000 0.0000 0.0000 ( 48321 PWs)   bands (ev):

   -21.9342 -21.0901 -20.5423 -20.4614 -19.8459 -19.7112 -19.5057 -18.5815
   -18.1004 -17.9688 -17.2232 -16.8343 -16.1938 -16.0779 -15.7091 -15.4793
   -15.2941 -14.7812 -14.5801 -13.6040 -13.1059 -12.7847 -12.7409 -12.4828
   -11.4455 -11.2035 -11.1960 -11.1076 -10.5906 -10.3365 -10.0265  -9.6072
    -9.4994  -9.4580  -9.4490  -9.3596  -9.3341  -9.1476  -9.0733  -8.9089
    -8.8776  -8.8685  -8.3589  -8.3295  -8.3162  -7.9760  -7.6570  -7.5556
    -7.5405  -7.3242  -7.3056  -6.3814  -6.2583  -6.1249  -5.9829  -5.6323
    -5.2675  -4.8348  -3.7999  -3.6185  -2.0475  -1.9681  -1.2815  -1.0058
     0.0204   0.1738   0.2370   0.2438   0.4366   0.6801   1.1354   1.1782
     1.3202   1.4001   1.6166   1.7153   1.8592   1.8947   2.0503   2.0740
     2.2109   2.2211   2.2460   2.4332   2.4415   2.4867   2.6554   2.6720
     2.6794   2.6828   2.7424   3.0399   3.1187   3.1382   3.1737   3.1890
     3.2058   3.2891   3.3145   3.3157

          k = 0.0345 0.0000 0.0000 ( 48315 PWs)   bands (ev):

   -21.9325 -21.0884 -20.6057 -20.3948 -19.8693 -19.7096 -19.4793 -18.5958
   -18.0836 -17.9676 -17.2266 -16.8638 -16.1931 -16.1093 -15.6806 -15.4731
   -15.2626 -14.7880 -14.5862 -13.5950 -13.1243 -12.7727 -12.7285 -12.4916
   -11.4363 -11.2264 -11.1929 -11.0836 -10.6762 -10.2662 -10.0245  -9.6071
    -9.6015  -9.5065  -9.3566  -9.3532  -9.3171  -9.1532  -9.0713  -8.8934
    -8.8742  -8.8471  -8.4511  -8.3482  -8.2207  -7.9552  -7.6548  -7.5848
    -7.5539  -7.3113  -7.2766  -6.3849  -6.2848  -6.1287  -5.9541  -5.6315
    -5.2686  -4.8468  -3.8171  -3.6259  -2.0416  -1.9504  -1.2673  -1.0026
    -0.0236   0.1699   0.2461   0.2825   0.4389   0.6825   1.1379   1.1805
     1.3225   1.4029   1.6190   1.7177   1.8616   1.8970   1.9605   2.0079
     2.1663   2.2990   2.3138   2.4356   2.4883   2.4989   2.5318   2.6818
     2.6852   2.7380   2.8013   3.0062   3.0359   3.0423   3.1831   3.1915
     3.2875   3.2919   3.3126   3.3262

          k = 0.0690 0.0000 0.0000 ( 48293 PWs)   bands (ev):

   -21.9273 -21.0833 -20.6944 -20.2968 -19.9252 -19.7049 -19.4144 -18.6338
   -18.0380 -17.9640 -17.2367 -16.9433 -16.1939 -16.1916 -15.6010 -15.4547
   -15.1800 -14.8075 -14.6039 -13.5689 -13.1731 -12.7421 -12.6921 -12.5171
   -11.4096 -11.2856 -11.1616 -11.0431 -10.8356 -10.1562 -10.0183  -9.7555
    -9.6072  -9.5241  -9.4111  -9.3343  -9.2043  -9.1694  -9.0653  -8.8574
    -8.8534  -8.7893  -8.5582  -8.3948  -8.1035  -7.9024  -7.6705  -7.6485
    -7.5486  -7.3281  -7.1810  -6.3955  -6.3452  -6.1403  -5.8870  -5.6289
    -5.2721  -4.8823  -3.8667  -3.6476  -2.0243  -1.8990  -1.2252  -0.9930
    -0.1103   0.1581   0.2530   0.3733   0.4458   0.6896   1.1454   1.1877
     1.3296   1.4112   1.6261   1.7248   1.8191   1.8687   1.8977   1.9042
     2.0646   2.3837   2.4349   2.4426   2.4520   2.4927   2.6075   2.6890
     2.6923   2.7253   2.8731   2.9077   2.9475   3.0495   3.0575   3.1990
     3.2815   3.3001   3.3328   3.3335

          k = 0.1034 0.0000 0.0000 ( 48325 PWs)   bands (ev):

   -21.9187 -21.0749 -20.7826 -20.1933 -19.9949 -19.6970 -19.3298 -18.6862
   -17.9729 -17.9582 -17.2530 -17.0558 -16.3041 -16.2009 -15.4834 -15.4246
   -15.0673 -14.8375 -14.6314 -13.5274 -13.2422 -12.7014 -12.6336 -12.5570
   -11.3682 -11.3558 -11.1114 -11.0146 -11.0028 -10.0715 -10.0080  -9.9126
    -9.6083  -9.5619  -9.4540  -9.3041  -9.1944  -9.1356  -9.0553  -8.8094
    -8.8018  -8.7059  -8.6625  -8.4547  -7.9826  -7.8320  -7.7640  -7.6391
    -7.5397  -7.3557  -7.0712  -6.4174  -6.4134  -6.1595  -5.8037  -5.6247
    -5.2778  -4.9396  -3.9439  -3.6829  -1.9965  -1.8190  -1.1569  -0.9772
    -0.2066   0.1388   0.2646   0.4574   0.4766   0.7013   1.1578   1.1996
     1.3414   1.4251   1.6381   1.6705   1.7366   1.7836   1.8806   1.9161
     1.9554   2.2718   2.4542   2.4985   2.5628   2.5718   2.7010   2.7042
     2.7059   2.7209   2.7418   2.7956   2.9457   3.0614   3.0915   3.1627
     3.1747   3.2115   3.2529   3.3138

          k = 0.1379 0.0000 0.0000 ( 48345 PWs)   bands (ev):

   -21.9066 -21.0631 -20.8681 -20.0862 -20.0690 -19.6859 -19.2349 -18.7456
   -17.9502 -17.8957 -17.2747 -17.1874 -16.4323 -16.2157 -15.3835 -15.3407
   -14.9393 -14.8742 -14.6662 -13.4730 -13.3242 -12.6550 -12.6085 -12.5559
   -11.4339 -11.3156 -11.2029 -11.0449 -10.9644 -10.0704 -10.0332  -9.9937
    -9.6469  -9.6124  -9.4300  -9.2641  -9.2254  -9.1200  -9.0414  -8.7633
    -8.7484  -8.7232  -8.6038  -8.5189  -7.8585  -7.8578  -7.7524  -7.6276
    -7.5273  -7.3935  -6.9545  -6.4928  -6.4390  -6.1862  -5.7126  -5.6188
    -5.2857  -5.0163  -4.0427  -3.7304  -1.9593  -1.7163  -1.0649  -0.9553
    -0.3050   0.1123   0.2808   0.4736   0.5845   0.7178   1.1751   1.2162
     1.3579   1.4443   1.5193   1.6549   1.6711   1.7532   1.8463   1.8973
     1.9328   2.1532   2.4706   2.5025   2.6115   2.6205   2.6837   2.6957
     2.7178   2.7208   2.7534   2.7595   2.9193   2.9902   3.0606   3.0781
     3.1212   3.2001   3.2289   3.2423

          k = 0.1724 0.0000 0.0000 ( 48344 PWs)   bands (ev):

   -21.8912 -21.0480 -20.9508 -20.1436 -19.9762 -19.6718 -19.1334 -18.8079
   -17.9401 -17.8106 -17.3295 -17.3009 -16.5684 -16.2389 -15.3323 -15.1832
   -14.9128 -14.8043 -14.7060 -13.4145 -13.4080 -12.6691 -12.6042 -12.4619
   -11.5183 -11.3969 -11.2562 -10.9649 -10.9275 -10.2261 -10.0413  -9.9752
    -9.7561  -9.6222  -9.3557  -9.2577  -9.2163  -9.1414  -9.0235  -8.8607
    -8.6986  -8.6277  -8.5717  -8.4882  -7.9496  -7.7315  -7.6676  -7.6158
    -7.5114  -7.4409  -6.8334  -6.5681  -6.4726  -6.2200  -5.6172  -5.6114
    -5.2955  -5.1096  -4.1575  -3.7885  -1.9139  -1.5964  -0.9519  -0.9275
    -0.4033   0.0792   0.3016   0.4944   0.6946   0.7390   1.1974   1.2376
     1.3665   1.3791   1.4689   1.5619   1.6765   1.7396   1.7745   1.9188
     1.9543   2.0384   2.4802   2.4916   2.4973   2.5326   2.6662   2.6704
     2.7393   2.7422   2.7633   2.8012   2.8618   3.0007   3.0181   3.0286
     3.0874   3.0995   3.2278   3.2513

          k = 0.2069 0.0000 0.0000 ( 48320 PWs)   bands (ev):

   -21.8722 -21.0302 -21.0295 -20.2173 -19.8637 -19.6545 -19.0272 -18.8702
   -17.9283 -17.7201 -17.4772 -17.3307 -16.7080 -16.2708 -15.2720 -15.0304
   -14.9355 -14.7488 -14.6677 -13.5098 -13.3345 -12.7367 -12.5487 -12.3549
   -11.6077 -11.5947 -11.1953 -10.8912 -10.8740 -10.3756 -10.0815  -9.9526
    -9.8742  -9.6420  -9.2859  -9.2557  -9.1843  -9.1627  -9.0016  -8.9543
    -8.6601  -8.6546  -8.4898  -8.3629  -8.0388  -7.6051  -7.6019  -7.5798
    -7.4972  -7.4920  -6.7086  -6.6419  -6.5146  -6.2606  -5.6025  -5.5188
    -5.3071  -5.2166  -4.2838  -3.8558  -1.8618  -1.4639  -0.8942  -0.8209
    -0.5006   0.0400   0.3271   0.5197   0.7649   0.8060   1.2125   1.2245
     1.2638   1.4050   1.4564   1.4987   1.6361   1.7029   1.8006   1.9280
     1.9450   1.9806   2.3430   2.4268   2.4735   2.5172   2.5649   2.6187
     2.6637   2.7198   2.7656   2.7683   2.8868   2.9476   3.0182   3.0893
     3.1137   3.1257   3.1644   3.1665

          k = 0.2414 0.0000 0.0000 ( 48294 PWs)   bands (ev):

   -21.8499 -21.1065 -21.0076 -20.2890 -19.7492 -19.6341 -18.9308 -18.9173
   -17.9151 -17.6276 -17.6258 -17.3631 -16.8483 -16.3118 -15.2037 -15.0094
   -14.8155 -14.7929 -14.5335 -13.6067 -13.2544 -12.8098 -12.4878 -12.2382
   -11.7950 -11.7006 -11.1418 -10.8548 -10.7748 -10.5111 -10.1438  -9.9932
    -9.9260  -9.6756  -9.3044  -9.2415  -9.1456  -9.1054  -9.0443  -8.9758
    -8.7233  -8.6173  -8.3769  -8.2307  -8.1248  -7.5972  -7.5614  -7.4901
    -7.4702  -7.4692  -6.7132  -6.5806  -6.5653  -6.3078  -5.5923  -5.4183
    -5.3348  -5.3202  -4.4180  -3.9309  -1.8041  -1.3223  -0.8557  -0.6746
    -0.5965  -0.0046   0.3572   0.5497   0.7956   0.9179   1.0574   1.2564
     1.2947   1.3549   1.4356   1.5337   1.5361   1.7340   1.8221   1.8315
     1.9759   2.0116   2.1923   2.3226   2.4289   2.4524   2.4607   2.5476
     2.6286   2.6789   2.7783   2.7967   2.7991   2.8604   3.0092   3.0274
     3.1567   3.1693   3.2098   3.2984

          k = 0.2759 0.0000 0.0000 ( 48294 PWs)   bands (ev):

   -21.8241 -21.1795 -20.9824 -20.3583 -19.6338 -19.6107 -18.9880 -18.8042
   -17.9011 -17.7788 -17.5287 -17.3970 -16.9876 -16.3621 -15.1282 -15.0375
   -14.8370 -14.6352 -14.4070 -13.7004 -13.1692 -12.8874 -12.4205 -12.1168
   -11.9968 -11.7928 -11.1137 -10.8177 -10.6697 -10.6151 -10.2299 -10.1016
    -9.8952  -9.7246  -9.3106  -9.3095  -9.1305  -9.0463  -9.0341  -8.9460
    -8.7861  -8.5861  -8.2672  -8.2075  -8.0944  -7.6329  -7.5935  -7.4428
    -7.3995  -7.3373  -6.7807  -6.6251  -6.4499  -6.3609  -5.5810  -5.4617
    -5.3345  -5.3162  -4.5575  -4.0125  -1.7417  -1.1742  -0.8125  -0.6909
    -0.5154  -0.0539   0.3920   0.5841   0.8309   0.9012   1.0295   1.2575
     1.2931   1.3304   1.4401   1.4710   1.5737   1.7208   1.7700   1.8671
     2.0117   2.0224   2.0474   2.2221   2.3091   2.3600   2.3688   2.5293
     2.5826   2.6749   2.7074   2.7606   2.8325   2.8346   2.9075   2.9374
     3.1924   3.2743   3.3371   3.3478

          k = 0.3103 0.0000 0.0000 ( 48332 PWs)   bands (ev):

   -21.7949 -21.2493 -20.9539 -20.4249 -19.5844 -19.5199 -19.0388 -18.6885
   -17.9296 -17.8877 -17.4316 -17.4297 -17.1236 -16.4215 -15.0620 -15.0466
   -14.8799 -14.4469 -14.2978 -13.7814 -13.0808 -12.9689 -12.3461 -12.1985
   -12.0151 -11.8612 -11.1387 -10.7792 -10.6602 -10.5607 -10.3442 -10.1892
    -9.8604  -9.7872  -9.3864  -9.3044  -9.2129  -8.9870  -8.9269  -8.9123
    -8.8472  -8.5592  -8.2867  -8.1636  -7.9560  -7.7106  -7.5952  -7.4131
    -7.3085  -7.2054  -6.8422  -6.6940  -6.4198  -6.3167  -5.5953  -5.5688
    -5.3497  -5.2128  -4.7003  -4.0994  -1.6753  -1.0216  -0.7836  -0.7649
    -0.3455  -0.1069   0.4314   0.6232   0.7441   0.8711   1.1400   1.1643
     1.3342   1.3481   1.3709   1.5110   1.6187   1.6242   1.8107   1.8361
     1.9075   2.0521   2.0880   2.1259   2.1874   2.2635   2.2979   2.4304
     2.5765   2.6222   2.6642   2.7453   2.8103   2.8431   2.8731   2.8748
     3.2329   3.3041   3.3898   3.4505

          k = 0.3448 0.0000 0.0000 ( 48318 PWs)   bands (ev):

   -21.7623 -21.3157 -20.9220 -20.4887 -19.5551 -19.4144 -19.0761 -18.5708
   -18.0794 -17.8769 -17.4659 -17.3292 -17.2537 -16.4897 -15.0792 -14.9595
   -14.9208 -14.2541 -14.2285 -13.8272 -13.0541 -12.9922 -12.3975 -12.2639
   -12.0407 -11.7987 -11.2226 -10.7389 -10.6402 -10.4777 -10.4499 -10.2619
    -9.8596  -9.8216  -9.4708  -9.2914  -9.2882  -8.9292  -8.9060  -8.8747
    -8.8308  -8.5316  -8.3623  -8.0673  -7.8172  -7.7938  -7.6034  -7.3800
    -7.2176  -7.0859  -6.8864  -6.7721  -6.4838  -6.1815  -5.7339  -5.5563
    -5.3654  -5.1086  -4.8446  -4.1909  -1.6057  -0.8745  -0.8660  -0.7135
    -0.1667  -0.1628   0.4753   0.5861   0.6667   0.9159   1.0755   1.2473
     1.2602   1.3797   1.4160   1.5323   1.5557   1.6411   1.6687   1.8561
     1.9526   2.0341   2.0816   2.0974   2.1333   2.1716   2.2193   2.3344
     2.4829   2.5722   2.6664   2.7178   2.7519   2.7903   2.9183   2.9197
     3.2483   3.2781   3.4366   3.4405

          k = 0.3793 0.0000 0.0000 ( 48294 PWs)   bands (ev):

   -21.7262 -21.3788 -20.8868 -20.5495 -19.5231 -19.3378 -19.0791 -18.4516
   -18.2273 -17.8732 -17.4987 -17.3732 -17.2281 -16.5658 -15.0883 -14.9588
   -14.8679 -14.2297 -14.0583 -13.8074 -13.1429 -12.9141 -12.5833 -12.1734
   -12.1338 -11.6658 -11.3399 -10.6965 -10.6205 -10.5809 -10.3402 -10.3274
    -9.9373  -9.7787  -9.5616  -9.3661  -9.2641  -8.9623  -8.8745  -8.8331
    -8.7562  -8.4934  -8.4344  -7.9793  -7.8818  -7.6799  -7.6191  -7.3436
    -7.1274  -7.0363  -6.8592  -6.8558  -6.5525  -6.0449  -5.8760  -5.5442
    -5.3808  -5.0038  -4.9886  -4.2859  -1.5332  -0.9636  -0.7092  -0.6590
    -0.2203   0.0194   0.4273   0.5239   0.7148   0.9655   0.9909   1.1766
     1.3350   1.4291   1.4450   1.4572   1.4660   1.6052   1.7236   1.9062
     1.9469   1.9884   2.0026   2.0843   2.1353   2.1473   2.1833   2.2422
     2.3942   2.4846   2.6300   2.6649   2.7152   2.8415   2.9683   2.9692
     3.1739   3.3281   3.3482   3.4340

          k = 0.4138 0.0000 0.0000 ( 48260 PWs)   bands (ev):

   -21.6868 -21.4386 -20.8483 -20.6072 -19.4886 -19.3184 -19.0196 -18.3729
   -18.3322 -17.8855 -17.5286 -17.4730 -17.1269 -16.6488 -15.0894 -14.9934
   -14.7725 -14.2905 -13.8602 -13.7325 -13.2353 -12.9154 -12.6869 -12.2360
   -12.0743 -11.5213 -11.4692 -10.7681 -10.6517 -10.5035 -10.3887 -10.2394
   -10.0111  -9.7317  -9.6578  -9.4369  -9.2337  -9.0159  -8.8241  -8.7876
    -8.7145  -8.5027  -8.4334  -7.9735  -7.9000  -7.6431  -7.5454  -7.3039
    -7.0687  -7.0384  -6.9550  -6.7386  -6.6255  -6.0204  -5.9079  -5.5347
    -5.3949  -5.1296  -4.8989  -4.3839  -1.4581  -1.0509  -0.6019  -0.5543
    -0.2763   0.2114   0.2680   0.5771   0.7673   0.9108   1.0198   1.0973
     1.2158   1.3623   1.4719   1.4815   1.5206   1.6594   1.7834   1.8642
     1.9078   1.9600   2.0016   2.0488   2.0573   2.1541   2.2021   2.2381
     2.3103   2.4017   2.5468   2.5822   2.7685   2.8984   3.0229   3.0234
     3.0982   3.2608   3.3601   3.3620

          k = 0.4483 0.0000 0.0000 ( 48270 PWs)   bands (ev):

   -21.6439 -21.4950 -20.8066 -20.6619 -19.4519 -19.3399 -18.9136 -18.5157
   -18.2143 -17.9264 -17.5536 -17.5403 -17.0264 -16.7375 -15.0828 -15.0237
   -14.6744 -14.3778 -13.6606 -13.6356 -13.3314 -13.0683 -12.6367 -12.3400
   -11.9667 -11.6003 -11.3724 -10.9183 -10.6046 -10.4469 -10.4181 -10.1921
   -10.0355  -9.7581  -9.6807  -9.5038  -9.1981  -9.0666  -8.7798  -8.7383
    -8.7047  -8.5673  -8.3527  -8.0682  -7.8299  -7.6759  -7.4150  -7.2611
    -7.1174  -7.0591  -6.9509  -6.7023  -6.6007  -6.1661  -5.7733  -5.5336
    -5.4050  -5.2613  -4.7940  -4.4842  -1.3808  -1.1363  -0.5430  -0.4247
    -0.3072   0.1085   0.4081   0.6348   0.8244   0.8351   1.0151   1.0224
     1.0789   1.2844   1.5345   1.5526   1.5800   1.7184   1.7862   1.8471
     1.8480   1.9237   1.9556   2.0251   2.0706   2.1167   2.2312   2.2616
     2.2976   2.3234   2.4684   2.5041   2.8262   2.9607   3.0246   3.0821
     3.0823   3.1783   3.2855   3.2860

          k = 0.4828 0.0000 0.0000 ( 48278 PWs)   bands (ev):

   -21.5976 -21.5480 -20.7616 -20.7133 -19.4136 -19.3751 -18.7885 -18.6547
   -18.1017 -18.0016 -17.5696 -17.5693 -16.9274 -16.8308 -15.0692 -15.0492
   -14.5745 -14.4747 -13.5330 -13.4602 -13.4309 -13.2610 -12.5444 -12.4436
   -11.8511 -11.7285 -11.2215 -11.0698 -10.5548 -10.5022 -10.3304 -10.2467
    -9.9614  -9.8609  -9.6257  -9.5668  -9.1581  -9.1141  -8.7432  -8.7168
    -8.6851  -8.6281  -8.2606  -8.1646  -7.7691  -7.7178  -7.2899  -7.2155
    -7.1710  -7.1672  -6.8654  -6.7824  -6.4574  -6.3121  -5.6491  -5.5618
    -5.4030  -5.3624  -4.6897  -4.5863  -1.3013  -1.2198  -0.4840  -0.4292
    -0.2040  -0.0502   0.6085   0.6971   0.7638   0.8113   0.8860   0.9520
     1.1427   1.2112   1.5808   1.5968   1.6440   1.7127   1.7821   1.8305
     1.8505   1.8775   1.9174   1.9916   2.0878   2.1570   2.1809   2.2498
     2.3258   2.3618   2.3947   2.4307   2.8883   2.9545   3.0282   3.1007
     3.1457   3.1458   3.2137   3.2137

          k = 0.5172 0.0000 0.0000 ( 48278 PWs)   bands (ev):

   -21.5976 -21.5480 -20.7616 -20.7133 -19.4136 -19.3751 -18.7885 -18.6547
   -18.1017 -18.0016 -17.5696 -17.5693 -16.9274 -16.8308 -15.0692 -15.0492
   -14.5745 -14.4747 -13.5330 -13.4602 -13.4309 -13.2610 -12.5444 -12.4436
   -11.8511 -11.7285 -11.2215 -11.0698 -10.5548 -10.5022 -10.3304 -10.2467
    -9.9614  -9.8609  -9.6257  -9.5668  -9.1581  -9.1141  -8.7432  -8.7168
    -8.6851  -8.6281  -8.2606  -8.1646  -7.7691  -7.7178  -7.2899  -7.2155
    -7.1710  -7.1672  -6.8654  -6.7824  -6.4574  -6.3121  -5.6491  -5.5618
    -5.4030  -5.3624  -4.6897  -4.5863  -1.3013  -1.2198  -0.4840  -0.4292
    -0.2040  -0.0502   0.6085   0.6971   0.7638   0.8113   0.8860   0.9520
     1.1427   1.2112   1.5808   1.5968   1.6440   1.7127   1.7821   1.8305
     1.8505   1.8775   1.9174   1.9916   2.0878   2.1570   2.1809   2.2498
     2.3258   2.3618   2.3947   2.4307   2.8883   2.9545   3.0282   3.1007
     3.1457   3.1458   3.2137   3.2137

          k = 0.5517 0.0000 0.0000 ( 48270 PWs)   bands (ev):

   -21.6439 -21.4950 -20.8066 -20.6619 -19.4519 -19.3399 -18.9136 -18.5157
   -18.2143 -17.9264 -17.5536 -17.5403 -17.0264 -16.7375 -15.0828 -15.0237
   -14.6744 -14.3778 -13.6606 -13.6356 -13.3314 -13.0683 -12.6367 -12.3400
   -11.9667 -11.6003 -11.3724 -10.9183 -10.6046 -10.4469 -10.4181 -10.1921
   -10.0355  -9.7581  -9.6807  -9.5038  -9.1981  -9.0666  -8.7798  -8.7383
    -8.7047  -8.5673  -8.3527  -8.0682  -7.8299  -7.6759  -7.4150  -7.2611
    -7.1174  -7.0591  -6.9509  -6.7023  -6.6007  -6.1661  -5.7733  -5.5336
    -5.4050  -5.2613  -4.7940  -4.4842  -1.3808  -1.1363  -0.5430  -0.4247
    -0.3072   0.1085   0.4081   0.6348   0.8244   0.8351   1.0151   1.0224
     1.0789   1.2844   1.5345   1.5526   1.5800   1.7184   1.7862   1.8471
     1.8480   1.9237   1.9556   2.0251   2.0706   2.1167   2.2312   2.2616
     2.2976   2.3234   2.4684   2.5041   2.8262   2.9607   3.0246   3.0821
     3.0823   3.1783   3.2855   3.2860

          k = 0.5862 0.0000 0.0000 ( 48260 PWs)   bands (ev):

   -21.6868 -21.4386 -20.8483 -20.6072 -19.4886 -19.3184 -19.0196 -18.3729
   -18.3322 -17.8855 -17.5286 -17.4730 -17.1269 -16.6488 -15.0894 -14.9934
   -14.7725 -14.2905 -13.8602 -13.7325 -13.2353 -12.9154 -12.6869 -12.2360
   -12.0743 -11.5213 -11.4692 -10.7681 -10.6517 -10.5035 -10.3887 -10.2394
   -10.0111  -9.7317  -9.6578  -9.4369  -9.2337  -9.0159  -8.8241  -8.7876
    -8.7145  -8.5027  -8.4334  -7.9735  -7.9000  -7.6431  -7.5454  -7.3039
    -7.0687  -7.0384  -6.9550  -6.7386  -6.6255  -6.0204  -5.9079  -5.5347
    -5.3949  -5.1296  -4.8989  -4.3839  -1.4581  -1.0509  -0.6019  -0.5543
    -0.2763   0.2114   0.2680   0.5771   0.7673   0.9108   1.0198   1.0973
     1.2158   1.3623   1.4719   1.4815   1.5206   1.6594   1.7834   1.8642
     1.9078   1.9600   2.0016   2.0488   2.0573   2.1541   2.2021   2.2381
     2.3103   2.4017   2.5468   2.5822   2.7685   2.8984   3.0229   3.0234
     3.0982   3.2608   3.3601   3.3620

          k = 0.6207 0.0000 0.0000 ( 48294 PWs)   bands (ev):

   -21.7262 -21.3788 -20.8868 -20.5495 -19.5231 -19.3378 -19.0791 -18.4516
   -18.2273 -17.8732 -17.4987 -17.3732 -17.2281 -16.5658 -15.0883 -14.9588
   -14.8679 -14.2297 -14.0583 -13.8074 -13.1429 -12.9141 -12.5833 -12.1734
   -12.1338 -11.6658 -11.3399 -10.6965 -10.6205 -10.5809 -10.3402 -10.3274
    -9.9373  -9.7787  -9.5616  -9.3661  -9.2641  -8.9623  -8.8745  -8.8331
    -8.7562  -8.4934  -8.4344  -7.9793  -7.8818  -7.6799  -7.6191  -7.3436
    -7.1274  -7.0363  -6.8592  -6.8558  -6.5525  -6.0449  -5.8760  -5.5442
    -5.3808  -5.0038  -4.9886  -4.2859  -1.5332  -0.9636  -0.7092  -0.6590
    -0.2203   0.0194   0.4273   0.5239   0.7148   0.9655   0.9909   1.1766
     1.3350   1.4291   1.4450   1.4572   1.4660   1.6052   1.7236   1.9062
     1.9469   1.9884   2.0026   2.0843   2.1353   2.1473   2.1833   2.2422
     2.3942   2.4846   2.6300   2.6649   2.7152   2.8415   2.9683   2.9692
     3.1739   3.3281   3.3482   3.4340

          k = 0.6552 0.0000 0.0000 ( 48318 PWs)   bands (ev):

   -21.7623 -21.3157 -20.9220 -20.4887 -19.5551 -19.4144 -19.0761 -18.5708
   -18.0794 -17.8769 -17.4659 -17.3292 -17.2537 -16.4897 -15.0792 -14.9595
   -14.9208 -14.2541 -14.2285 -13.8272 -13.0541 -12.9922 -12.3975 -12.2639
   -12.0407 -11.7987 -11.2226 -10.7389 -10.6402 -10.4777 -10.4499 -10.2619
    -9.8596  -9.8216  -9.4708  -9.2914  -9.2882  -8.9292  -8.9060  -8.8747
    -8.8308  -8.5316  -8.3623  -8.0673  -7.8172  -7.7938  -7.6034  -7.3800
    -7.2176  -7.0859  -6.8864  -6.7721  -6.4838  -6.1815  -5.7339  -5.5563
    -5.3654  -5.1086  -4.8446  -4.1909  -1.6057  -0.8745  -0.8660  -0.7135
    -0.1667  -0.1628   0.4753   0.5861   0.6667   0.9159   1.0755   1.2473
     1.2602   1.3797   1.4160   1.5323   1.5557   1.6411   1.6687   1.8561
     1.9526   2.0341   2.0816   2.0974   2.1333   2.1716   2.2193   2.3344
     2.4829   2.5722   2.6664   2.7178   2.7519   2.7903   2.9183   2.9197
     3.2483   3.2781   3.4366   3.4405

          k = 0.6897 0.0000 0.0000 ( 48332 PWs)   bands (ev):

   -21.7949 -21.2493 -20.9539 -20.4249 -19.5844 -19.5199 -19.0388 -18.6885
   -17.9296 -17.8877 -17.4316 -17.4297 -17.1236 -16.4215 -15.0620 -15.0466
   -14.8799 -14.4469 -14.2978 -13.7814 -13.0808 -12.9689 -12.3461 -12.1985
   -12.0151 -11.8612 -11.1387 -10.7792 -10.6602 -10.5607 -10.3442 -10.1892
    -9.8604  -9.7872  -9.3864  -9.3044  -9.2129  -8.9870  -8.9269  -8.9123
    -8.8472  -8.5592  -8.2867  -8.1636  -7.9560  -7.7106  -7.5952  -7.4131
    -7.3085  -7.2054  -6.8422  -6.6940  -6.4198  -6.3167  -5.5953  -5.5688
    -5.3497  -5.2128  -4.7003  -4.0994  -1.6753  -1.0216  -0.7836  -0.7649
    -0.3455  -0.1069   0.4314   0.6232   0.7441   0.8711   1.1400   1.1643
     1.3342   1.3481   1.3709   1.5110   1.6187   1.6242   1.8107   1.8361
     1.9075   2.0521   2.0880   2.1259   2.1874   2.2635   2.2979   2.4304
     2.5765   2.6222   2.6642   2.7453   2.8103   2.8431   2.8731   2.8748
     3.2329   3.3041   3.3898   3.4505

          k = 0.7241 0.0000 0.0000 ( 48294 PWs)   bands (ev):

   -21.8241 -21.1795 -20.9824 -20.3583 -19.6338 -19.6107 -18.9880 -18.8042
   -17.9011 -17.7788 -17.5287 -17.3970 -16.9876 -16.3621 -15.1282 -15.0375
   -14.8370 -14.6352 -14.4070 -13.7004 -13.1692 -12.8874 -12.4205 -12.1168
   -11.9968 -11.7928 -11.1137 -10.8177 -10.6697 -10.6151 -10.2299 -10.1016
    -9.8952  -9.7246  -9.3106  -9.3095  -9.1305  -9.0463  -9.0341  -8.9460
    -8.7861  -8.5861  -8.2672  -8.2075  -8.0944  -7.6329  -7.5935  -7.4428
    -7.3995  -7.3373  -6.7807  -6.6251  -6.4499  -6.3609  -5.5810  -5.4617
    -5.3345  -5.3162  -4.5575  -4.0125  -1.7417  -1.1742  -0.8125  -0.6909
    -0.5154  -0.0539   0.3920   0.5841   0.8309   0.9012   1.0295   1.2575
     1.2931   1.3304   1.4401   1.4710   1.5737   1.7208   1.7700   1.8671
     2.0117   2.0224   2.0474   2.2221   2.3091   2.3600   2.3688   2.5293
     2.5826   2.6749   2.7074   2.7606   2.8325   2.8346   2.9075   2.9374
     3.1924   3.2743   3.3371   3.3478

          k = 0.7586 0.0000 0.0000 ( 48294 PWs)   bands (ev):

   -21.8499 -21.1065 -21.0076 -20.2890 -19.7492 -19.6341 -18.9308 -18.9173
   -17.9151 -17.6276 -17.6258 -17.3631 -16.8483 -16.3118 -15.2037 -15.0094
   -14.8155 -14.7929 -14.5335 -13.6067 -13.2544 -12.8098 -12.4878 -12.2382
   -11.7950 -11.7006 -11.1418 -10.8548 -10.7748 -10.5111 -10.1438  -9.9932
    -9.9260  -9.6756  -9.3044  -9.2415  -9.1456  -9.1054  -9.0443  -8.9758
    -8.7233  -8.6173  -8.3769  -8.2307  -8.1248  -7.5972  -7.5614  -7.4901
    -7.4702  -7.4692  -6.7132  -6.5806  -6.5653  -6.3078  -5.5923  -5.4183
    -5.3348  -5.3202  -4.4180  -3.9309  -1.8041  -1.3223  -0.8557  -0.6746
    -0.5965  -0.0046   0.3572   0.5497   0.7956   0.9179   1.0574   1.2564
     1.2947   1.3549   1.4356   1.5337   1.5361   1.7340   1.8221   1.8315
     1.9759   2.0116   2.1923   2.3226   2.4289   2.4524   2.4607   2.5476
     2.6286   2.6789   2.7783   2.7967   2.7991   2.8604   3.0092   3.0274
     3.1567   3.1693   3.2098   3.2984

          k = 0.7931 0.0000 0.0000 ( 48320 PWs)   bands (ev):

   -21.8722 -21.0302 -21.0295 -20.2173 -19.8637 -19.6545 -19.0272 -18.8702
   -17.9283 -17.7201 -17.4772 -17.3307 -16.7080 -16.2708 -15.2720 -15.0304
   -14.9355 -14.7488 -14.6677 -13.5098 -13.3345 -12.7367 -12.5487 -12.3549
   -11.6077 -11.5947 -11.1953 -10.8912 -10.8740 -10.3756 -10.0815  -9.9526
    -9.8742  -9.6420  -9.2859  -9.2557  -9.1843  -9.1627  -9.0016  -8.9543
    -8.6601  -8.6546  -8.4898  -8.3629  -8.0388  -7.6051  -7.6019  -7.5798
    -7.4972  -7.4920  -6.7086  -6.6419  -6.5146  -6.2606  -5.6025  -5.5188
    -5.3071  -5.2166  -4.2838  -3.8558  -1.8618  -1.4639  -0.8942  -0.8209
    -0.5006   0.0400   0.3271   0.5197   0.7649   0.8060   1.2125   1.2245
     1.2638   1.4050   1.4564   1.4987   1.6361   1.7029   1.8006   1.9280
     1.9450   1.9806   2.3430   2.4268   2.4735   2.5172   2.5649   2.6187
     2.6637   2.7198   2.7656   2.7683   2.8868   2.9476   3.0182   3.0893
     3.1137   3.1257   3.1644   3.1665

          k = 0.8276 0.0000 0.0000 ( 48344 PWs)   bands (ev):

   -21.8912 -21.0480 -20.9508 -20.1436 -19.9762 -19.6718 -19.1334 -18.8079
   -17.9401 -17.8106 -17.3295 -17.3009 -16.5684 -16.2389 -15.3323 -15.1832
   -14.9128 -14.8043 -14.7060 -13.4145 -13.4080 -12.6691 -12.6042 -12.4619
   -11.5183 -11.3969 -11.2562 -10.9649 -10.9275 -10.2261 -10.0413  -9.9752
    -9.7561  -9.6222  -9.3557  -9.2577  -9.2163  -9.1414  -9.0235  -8.8607
    -8.6986  -8.6277  -8.5717  -8.4882  -7.9496  -7.7315  -7.6676  -7.6158
    -7.5114  -7.4409  -6.8334  -6.5681  -6.4726  -6.2200  -5.6172  -5.6114
    -5.2955  -5.1096  -4.1575  -3.7885  -1.9139  -1.5964  -0.9519  -0.9275
    -0.4033   0.0792   0.3016   0.4944   0.6946   0.7390   1.1974   1.2376
     1.3665   1.3791   1.4689   1.5619   1.6765   1.7396   1.7745   1.9188
     1.9543   2.0384   2.4802   2.4916   2.4973   2.5326   2.6662   2.6704
     2.7393   2.7422   2.7633   2.8012   2.8618   3.0007   3.0181   3.0286
     3.0874   3.0995   3.2278   3.2513

          k = 0.8621 0.0000 0.0000 ( 48345 PWs)   bands (ev):

   -21.9066 -21.0631 -20.8681 -20.0862 -20.0690 -19.6859 -19.2349 -18.7456
   -17.9502 -17.8957 -17.2747 -17.1874 -16.4323 -16.2157 -15.3835 -15.3407
   -14.9393 -14.8742 -14.6662 -13.4730 -13.3242 -12.6550 -12.6085 -12.5559
   -11.4339 -11.3156 -11.2029 -11.0449 -10.9644 -10.0704 -10.0332  -9.9937
    -9.6469  -9.6124  -9.4300  -9.2641  -9.2254  -9.1200  -9.0414  -8.7633
    -8.7484  -8.7232  -8.6038  -8.5189  -7.8585  -7.8578  -7.7524  -7.6276
    -7.5273  -7.3935  -6.9545  -6.4928  -6.4390  -6.1862  -5.7126  -5.6188
    -5.2857  -5.0163  -4.0427  -3.7304  -1.9593  -1.7163  -1.0649  -0.9553
    -0.3050   0.1123   0.2808   0.4736   0.5845   0.7178   1.1751   1.2162
     1.3579   1.4443   1.5193   1.6549   1.6711   1.7532   1.8463   1.8973
     1.9328   2.1532   2.4706   2.5025   2.6115   2.6205   2.6837   2.6957
     2.7178   2.7208   2.7534   2.7595   2.9193   2.9902   3.0606   3.0781
     3.1212   3.2001   3.2289   3.2423

          k = 0.8966 0.0000 0.0000 ( 48325 PWs)   bands (ev):

   -21.9187 -21.0749 -20.7826 -20.1933 -19.9949 -19.6970 -19.3298 -18.6862
   -17.9729 -17.9582 -17.2530 -17.0558 -16.3041 -16.2009 -15.4834 -15.4246
   -15.0673 -14.8375 -14.6314 -13.5274 -13.2422 -12.7014 -12.6336 -12.5570
   -11.3682 -11.3558 -11.1114 -11.0146 -11.0028 -10.0715 -10.0080  -9.9126
    -9.6083  -9.5619  -9.4540  -9.3041  -9.1944  -9.1356  -9.0553  -8.8094
    -8.8018  -8.7059  -8.6625  -8.4547  -7.9826  -7.8320  -7.7640  -7.6391
    -7.5397  -7.3557  -7.0712  -6.4174  -6.4134  -6.1595  -5.8037  -5.6247
    -5.2778  -4.9396  -3.9439  -3.6829  -1.9965  -1.8190  -1.1569  -0.9772
    -0.2066   0.1388   0.2646   0.4574   0.4766   0.7013   1.1578   1.1996
     1.3414   1.4251   1.6381   1.6705   1.7366   1.7836   1.8806   1.9161
     1.9554   2.2718   2.4542   2.4985   2.5628   2.5718   2.7010   2.7042
     2.7059   2.7209   2.7418   2.7956   2.9457   3.0614   3.0915   3.1627
     3.1747   3.2115   3.2529   3.3138

          k = 0.9310 0.0000 0.0000 ( 48293 PWs)   bands (ev):

   -21.9273 -21.0833 -20.6944 -20.2968 -19.9252 -19.7049 -19.4144 -18.6338
   -18.0380 -17.9640 -17.2367 -16.9433 -16.1939 -16.1916 -15.6010 -15.4547
   -15.1800 -14.8075 -14.6039 -13.5689 -13.1731 -12.7421 -12.6921 -12.5171
   -11.4096 -11.2856 -11.1616 -11.0431 -10.8356 -10.1562 -10.0183  -9.7555
    -9.6072  -9.5241  -9.4111  -9.3343  -9.2043  -9.1694  -9.0653  -8.8574
    -8.8534  -8.7893  -8.5582  -8.3948  -8.1035  -7.9024  -7.6705  -7.6485
    -7.5486  -7.3281  -7.1810  -6.3955  -6.3452  -6.1403  -5.8870  -5.6289
    -5.2721  -4.8823  -3.8667  -3.6476  -2.0243  -1.8990  -1.2252  -0.9930
    -0.1103   0.1581   0.2530   0.3733   0.4458   0.6896   1.1454   1.1877
     1.3296   1.4112   1.6261   1.7248   1.8191   1.8687   1.8977   1.9042
     2.0646   2.3837   2.4349   2.4426   2.4520   2.4927   2.6075   2.6890
     2.6923   2.7253   2.8731   2.9077   2.9475   3.0495   3.0575   3.1990
     3.2815   3.3001   3.3328   3.3335

          k = 0.9655 0.0000 0.0000 ( 48315 PWs)   bands (ev):

   -21.9325 -21.0884 -20.6057 -20.3948 -19.8693 -19.7096 -19.4793 -18.5958
   -18.0836 -17.9676 -17.2266 -16.8638 -16.1931 -16.1093 -15.6806 -15.4731
   -15.2626 -14.7880 -14.5862 -13.5950 -13.1243 -12.7727 -12.7285 -12.4916
   -11.4363 -11.2264 -11.1929 -11.0836 -10.6762 -10.2662 -10.0245  -9.6071
    -9.6015  -9.5065  -9.3566  -9.3532  -9.3171  -9.1532  -9.0713  -8.8934
    -8.8742  -8.8471  -8.4511  -8.3482  -8.2207  -7.9552  -7.6548  -7.5848
    -7.5539  -7.3113  -7.2766  -6.3849  -6.2848  -6.1287  -5.9541  -5.6315
    -5.2686  -4.8468  -3.8171  -3.6259  -2.0416  -1.9504  -1.2673  -1.0026
    -0.0236   0.1699   0.2461   0.2825   0.4389   0.6825   1.1379   1.1805
     1.3225   1.4029   1.6190   1.7177   1.8616   1.8970   1.9605   2.0079
     2.1663   2.2990   2.3138   2.4356   2.4883   2.4989   2.5318   2.6818
     2.6852   2.7380   2.8013   3.0062   3.0359   3.0423   3.1831   3.1915
     3.2875   3.2919   3.3126   3.3262

          k = 1.0000 0.0000 0.0000 ( 48321 PWs)   bands (ev):

   -21.9342 -21.0901 -20.5423 -20.4614 -19.8459 -19.7112 -19.5057 -18.5815
   -18.1004 -17.9688 -17.2232 -16.8343 -16.1938 -16.0779 -15.7091 -15.4793
   -15.2941 -14.7812 -14.5801 -13.6040 -13.1059 -12.7847 -12.7409 -12.4828
   -11.4455 -11.2035 -11.1960 -11.1076 -10.5906 -10.3365 -10.0265  -9.6072
    -9.4994  -9.4580  -9.4490  -9.3596  -9.3341  -9.1476  -9.0733  -8.9089
    -8.8776  -8.8685  -8.3589  -8.3295  -8.3162  -7.9760  -7.6570  -7.5556
    -7.5405  -7.3242  -7.3056  -6.3814  -6.2583  -6.1249  -5.9829  -5.6323
    -5.2675  -4.8348  -3.7999  -3.6185  -2.0475  -1.9681  -1.2815  -1.0058
     0.0204   0.1738   0.2370   0.2438   0.4366   0.6801   1.1354   1.1782
     1.3202   1.4001   1.6166   1.7153   1.8592   1.8947   2.0503   2.0740
     2.2109   2.2211   2.2460   2.4332   2.4415   2.4867   2.6554   2.6720
     2.6794   2.6828   2.7424   3.0399   3.1187   3.1382   3.1737   3.1890
     3.2058   3.2891   3.3145   3.3157

     Writing all to output data dir ./7agnr_2uc.save/
 
     init_run     :      1.49s CPU      1.64s WALL (       1 calls)
     electrons    :    348.60s CPU    350.67s WALL (       1 calls)

     Called by init_run:
     wfcinit      :      0.00s CPU      0.00s WALL (       1 calls)
     potinit      :      0.22s CPU      0.27s WALL (       1 calls)
     hinit0       :      0.69s CPU      0.71s WALL (       1 calls)

     Called by electrons:
     c_bands      :    348.60s CPU    350.67s WALL (       1 calls)
     v_of_rho     :      0.18s CPU      0.21s WALL (       1 calls)
     newd         :      0.08s CPU      0.12s WALL (       1 calls)

     Called by c_bands:
     init_us_2    :      0.12s CPU      0.13s WALL (      15 calls)
     init_us_2:cp :      0.12s CPU      0.13s WALL (      15 calls)
     cegterg      :    323.14s CPU    324.89s WALL (      77 calls)

     Called by *egterg:
     cdiaghg      :     15.44s CPU     15.47s WALL (    1461 calls)
     h_psi        :    187.76s CPU    188.82s WALL (    1538 calls)
     s_psi        :     24.17s CPU     24.21s WALL (    1538 calls)
     g_psi        :      0.62s CPU      0.63s WALL (    1446 calls)

     Called by h_psi:
     h_psi:calbec :     20.60s CPU     20.67s WALL (    1538 calls)
     vloc_psi     :    140.82s CPU    141.49s WALL (    1538 calls)
     add_vuspsi   :     25.14s CPU     25.20s WALL (    1538 calls)

     General routines
     calbec       :     20.59s CPU     20.67s WALL (    1538 calls)
     fft          :      0.20s CPU      0.25s WALL (      13 calls)
     ffts         :      0.00s CPU      0.01s WALL (       1 calls)
     fftw         :    132.26s CPU    132.90s WALL (   97614 calls)
     interpolate  :      0.01s CPU      0.02s WALL (       1 calls)
     davcio       :      0.01s CPU      0.29s WALL (      30 calls)
 
     Parallel routines
 
     PWSCF        :   5m51.52s CPU   5m54.62s WALL

 
   This run was terminated on:  11:59:26  20Mar2023            

=------------------------------------------------------------------------------=
   JOB DONE.
=------------------------------------------------------------------------------=
