
     Program PWSCF v.7.1 starts on 20Mar2023 at 11:51:31 

     This program is part of the open-source Quantum ESPRESSO suite
     for quantum simulation of materials; please cite
         "P. Giannozzi et al., J. Phys.:Condens. Matter 21 395502 (2009);
         "P. Giannozzi et al., J. Phys.:Condens. Matter 29 465901 (2017);
         "P. Giannozzi et al., J. Chem. Phys. 152 154105 (2020);
          URL http://www.quantum-espresso.org", 
     in publications or presentations arising from this work. More details at
     http://www.quantum-espresso.org/quote

     Parallel version (MPI), running on    12 processors

     MPI processes distributed on     2 nodes
     216546 MiB available memory on the printing compute node when the environment starts
 
     Waiting for input...
     Reading input from standard input

     Current dimensions of program PWSCF are:
     Max number of different atomic species (ntypx) = 10
     Max number of k-points (npk) =  40000
     Max angular momentum in pseudopotentials (lmaxx) =  4
     Found identity + (  0.5000  0.0000  0.0000) symmetry
     This is a supercell, fractional translations are disabled
 
     K-points division:     npool     =       2
     R & G space division:  proc/nbgrp/npool/nimage =       6
     Subspace diagonalization in iterative solution of the eigenvalue problem:
     a serial algorithm will be used

 
     Parallelization info
     --------------------
     sticks:   dense  smooth     PW     G-vecs:    dense   smooth      PW
     Min        1955     977    261               182185    64396    8943
     Max        1956     980    262               182188    64397    8946
     Sum       11731    5867   1569              1093113   386381   53663
 
     Using Slab Decomposition
 


     bravais-lattice index     =            8
     lattice parameter (alat)  =      16.2512  a.u.
     unit-cell volume          =   17410.2011 (a.u.)^3
     number of atoms/cell      =           36
     number of atomic types    =            2
     number of electrons       =       120.00
     number of Kohn-Sham states=           72
     kinetic-energy cutoff     =      30.0000  Ry
     charge density cutoff     =     240.0000  Ry
     scf convergence threshold =      1.0E-08
     mixing beta               =       0.2500
     number of iterations used =            8  plain     mixing
     Exchange-correlation= PBE
                           (   1   4   3   4   0   0   0)

     celldm(1)=  16.251176  celldm(2)=   2.325648  celldm(3)=   1.744236
     celldm(4)=   0.000000  celldm(5)=   0.000000  celldm(6)=   0.000000

     crystal axes: (cart. coord. in units of alat)
               a(1) = (   1.000000   0.000000   0.000000 )  
               a(2) = (   0.000000   2.325648   0.000000 )  
               a(3) = (   0.000000   0.000000   1.744236 )  

     reciprocal axes: (cart. coord. in units 2 pi/alat)
               b(1) = (  1.000000  0.000000  0.000000 )  
               b(2) = (  0.000000  0.429988  0.000000 )  
               b(3) = (  0.000000  0.000000  0.573317 )  


     PseudoPot. # 1 for C  read from file:
     ../pseudo/C_pbe_v1.2.uspp.F.UPF
     MD5 check sum: d1aef80898a10debaa0f26306b886e00
     Pseudo is Ultrasoft + core correction, Zval =  4.0
     Generated by new atomic code, or converted to UPF format
     Using radial grid of  721 points,  4 beta functions with: 
                l(1) =   0
                l(2) =   0
                l(3) =   1
                l(4) =   1
     Q(r) pseudized with  8 coefficients,  rinner =    1.100   1.100   1.100


     PseudoPot. # 2 for H  read from file:
     ../pseudo/H.pbe-rrkjus_psl.0.1.UPF
     MD5 check sum: 36633979392af7100e6f6632747262d3
     Pseudo is Ultrasoft, Zval =  1.0
     Generated using "atomic" code by A. Dal Corso  v.5.0.99 svn rev. 10869
     Using radial grid of  929 points,  2 beta functions with: 
                l(1) =   0
                l(2) =   0
     Q(r) pseudized with 0 coefficients 


     atomic species   valence    mass     pseudopotential
        C              4.00    12.01070     C ( 1.00)
        H              1.00     1.00794     H ( 1.00)

      4 Sym. Ops. (no inversion) found



   Cartesian axes

     site n.     atom                  positions (alat units)
         1           C   tau(   1) = (   0.1703196   0.9933305   0.8721182  )
         2           C   tau(   2) = (   0.3296804   0.9933305   0.8721182  )
         3           C   tau(   3) = (   0.0837534   1.1335328   0.8721182  )
         4           C   tau(   4) = (   0.1665376   1.2764887   0.8721182  )
         5           C   tau(   5) = (   0.3334624   1.2764887   0.8721182  )
         6           C   tau(   6) = (   0.4162466   1.1335328   0.8721182  )
         7           C   tau(   7) = (   0.4173326   1.4202574   0.8721182  )
         8           C   tau(   8) = (   0.3334624   1.5640261   0.8721182  )
         9           C   tau(   9) = (   0.1665376   1.5640261   0.8721182  )
        10           C   tau(  10) = (   0.0826674   1.4202574   0.8721182  )
        11           C   tau(  11) = (   0.0837534   1.7069820   0.8721182  )
        12           C   tau(  12) = (   0.1703196   1.8471844   0.8721182  )
        13           C   tau(  13) = (   0.3296804   1.8471844   0.8721182  )
        14           C   tau(  14) = (   0.4162466   1.7069820   0.8721182  )
        15           H   tau(  15) = (   0.1105389   1.9586245   0.8721182  )
        16           H   tau(  16) = (   0.3894611   1.9586245   0.8721182  )
        17           H   tau(  17) = (   0.1105389   0.8818904   0.8721182  )
        18           H   tau(  18) = (   0.3894611   0.8818904   0.8721182  )
        19           C   tau(  19) = (   0.6703196   0.9933305   0.8721182  )
        20           C   tau(  20) = (   0.8296804   0.9933305   0.8721182  )
        21           C   tau(  21) = (   0.5837534   1.1335328   0.8721182  )
        22           C   tau(  22) = (   0.6665376   1.2764887   0.8721182  )
        23           C   tau(  23) = (   0.8334624   1.2764887   0.8721182  )
        24           C   tau(  24) = (   0.9162466   1.1335328   0.8721182  )
        25           C   tau(  25) = (   0.9173326   1.4202574   0.8721182  )
        26           C   tau(  26) = (   0.8334624   1.5640261   0.8721182  )
        27           C   tau(  27) = (   0.6665376   1.5640261   0.8721182  )
        28           C   tau(  28) = (   0.5826674   1.4202574   0.8721182  )
        29           C   tau(  29) = (   0.5837534   1.7069820   0.8721182  )
        30           C   tau(  30) = (   0.6703196   1.8471844   0.8721182  )
        31           C   tau(  31) = (   0.8296804   1.8471844   0.8721182  )
        32           C   tau(  32) = (   0.9162466   1.7069820   0.8721182  )
        33           H   tau(  33) = (   0.6105389   1.9586245   0.8721182  )
        34           H   tau(  34) = (   0.8894611   1.9586245   0.8721182  )
        35           H   tau(  35) = (   0.6105389   0.8818904   0.8721182  )
        36           H   tau(  36) = (   0.8894611   0.8818904   0.8721182  )

     number of k points=    11  Gaussian smearing, width (Ry)=  0.0010
                       cart. coord. in units 2pi/alat
        k(    1) = (   0.0000000   0.0000000   0.0000000), wk =   0.1000000
        k(    2) = (   0.0500000   0.0000000   0.0000000), wk =   0.2000000
        k(    3) = (   0.1000000   0.0000000   0.0000000), wk =   0.2000000
        k(    4) = (   0.1500000   0.0000000   0.0000000), wk =   0.2000000
        k(    5) = (   0.2000000   0.0000000   0.0000000), wk =   0.2000000
        k(    6) = (   0.2500000   0.0000000   0.0000000), wk =   0.2000000
        k(    7) = (   0.3000000   0.0000000   0.0000000), wk =   0.2000000
        k(    8) = (   0.3500000   0.0000000   0.0000000), wk =   0.2000000
        k(    9) = (   0.4000000   0.0000000   0.0000000), wk =   0.2000000
        k(   10) = (   0.4500000   0.0000000   0.0000000), wk =   0.2000000
        k(   11) = (  -0.5000000   0.0000000   0.0000000), wk =   0.1000000

     Dense  grid:  1093113 G-vectors     FFT dimensions: (  81, 192, 144)

     Smooth grid:   386381 G-vectors     FFT dimensions: (  60, 135, 100)

     Estimated max dynamical RAM per process >     298.23 MB

     Estimated total dynamical RAM >       3.23 GB

     Initial potential from superposition of free atoms

     starting charge     119.9988, renormalised to     120.0000

     negative rho (up, down):  5.508E-03 0.000E+00
     Starting wfcs are  120 randomized atomic wfcs

     total cpu time spent up to now is        5.8 secs

     Self-consistent Calculation

     iteration #  1     ecut=    30.00 Ry     beta= 0.25
     Davidson diagonalization with overlap
     ethr =  1.00E-02,  avg # of iterations =  2.0

     negative rho (up, down):  3.495E-03 0.000E+00

     total cpu time spent up to now is       14.4 secs

     total energy              =    -331.51178506 Ry
     estimated scf accuracy    <       3.68721936 Ry

     iteration #  2     ecut=    30.00 Ry     beta= 0.25
     Davidson diagonalization with overlap
     ethr =  3.07E-03,  avg # of iterations =  1.0

     negative rho (up, down):  4.716E-03 0.000E+00

     total cpu time spent up to now is       20.4 secs

     total energy              =    -330.73709156 Ry
     estimated scf accuracy    <       1.50982529 Ry

     iteration #  3     ecut=    30.00 Ry     beta= 0.25
     Davidson diagonalization with overlap
     ethr =  1.26E-03,  avg # of iterations =  8.6

     negative rho (up, down):  3.208E-03 0.000E+00

     total cpu time spent up to now is       30.5 secs

     total energy              =    -330.99338191 Ry
     estimated scf accuracy    <       0.11175379 Ry

     iteration #  4     ecut=    30.00 Ry     beta= 0.25
     Davidson diagonalization with overlap
     c_bands:  1 eigenvalues not converged
     ethr =  9.31E-05,  avg # of iterations = 18.2

     negative rho (up, down):  4.459E-03 0.000E+00

     total cpu time spent up to now is       42.1 secs

     total energy              =    -330.99597979 Ry
     estimated scf accuracy    <       0.03454558 Ry

     iteration #  5     ecut=    30.00 Ry     beta= 0.25
     Davidson diagonalization with overlap
     ethr =  2.88E-05,  avg # of iterations =  6.1

     negative rho (up, down):  3.137E-03 0.000E+00

     total cpu time spent up to now is       50.3 secs

     total energy              =    -330.99801893 Ry
     estimated scf accuracy    <       0.00446736 Ry

     iteration #  6     ecut=    30.00 Ry     beta= 0.25
     Davidson diagonalization with overlap
     c_bands:  1 eigenvalues not converged
     ethr =  3.72E-06,  avg # of iterations = 11.4

     negative rho (up, down):  2.779E-03 0.000E+00

     total cpu time spent up to now is       60.8 secs

     total energy              =    -330.99879263 Ry
     estimated scf accuracy    <       0.00181652 Ry

     iteration #  7     ecut=    30.00 Ry     beta= 0.25
     Davidson diagonalization with overlap
     ethr =  1.51E-06,  avg # of iterations =  2.4

     negative rho (up, down):  2.412E-03 0.000E+00

     total cpu time spent up to now is       68.2 secs

     total energy              =    -330.99900340 Ry
     estimated scf accuracy    <       0.00004442 Ry

     iteration #  8     ecut=    30.00 Ry     beta= 0.25
     Davidson diagonalization with overlap
     ethr =  3.70E-08,  avg # of iterations =  3.0

     negative rho (up, down):  2.145E-03 0.000E+00

     total cpu time spent up to now is       76.8 secs

     total energy              =    -330.99900560 Ry
     estimated scf accuracy    <       0.00005473 Ry

     iteration #  9     ecut=    30.00 Ry     beta= 0.25
     Davidson diagonalization with overlap
     ethr =  3.70E-08,  avg # of iterations =  2.0

     negative rho (up, down):  2.073E-03 0.000E+00

     total cpu time spent up to now is       84.2 secs

     total energy              =    -330.99901767 Ry
     estimated scf accuracy    <       0.00000137 Ry

     iteration # 10     ecut=    30.00 Ry     beta= 0.25
     Davidson diagonalization with overlap
     ethr =  1.14E-09,  avg # of iterations =  2.5

     negative rho (up, down):  2.074E-03 0.000E+00

     total cpu time spent up to now is       92.4 secs

     total energy              =    -330.99901850 Ry
     estimated scf accuracy    <       0.00000110 Ry

     iteration # 11     ecut=    30.00 Ry     beta= 0.25
     Davidson diagonalization with overlap
     ethr =  9.18E-10,  avg # of iterations =  2.0

     negative rho (up, down):  2.107E-03 0.000E+00

     total cpu time spent up to now is      100.0 secs

     total energy              =    -330.99901936 Ry
     estimated scf accuracy    <       0.00000005 Ry

     iteration # 12     ecut=    30.00 Ry     beta= 0.25
     Davidson diagonalization with overlap
     ethr =  3.95E-11,  avg # of iterations =  2.2

     negative rho (up, down):  2.150E-03 0.000E+00

     total cpu time spent up to now is      107.8 secs

     total energy              =    -330.99901981 Ry
     estimated scf accuracy    <       0.00000003 Ry

     iteration # 13     ecut=    30.00 Ry     beta= 0.25
     Davidson diagonalization with overlap
     ethr =  2.49E-11,  avg # of iterations =  2.0

     negative rho (up, down):  2.361E-03 0.000E+00

     total cpu time spent up to now is      115.6 secs

     End of self-consistent calculation

          k = 0.0000 0.0000 0.0000 ( 48321 PWs)   bands (ev):

   -21.9339 -21.0898 -20.5420 -20.4611 -19.8456 -19.7110 -19.5055 -18.5813
   -18.1002 -17.9685 -17.2230 -16.8340 -16.1936 -16.0777 -15.7088 -15.4791
   -15.2939 -14.7810 -14.5798 -13.6038 -13.1057 -12.7845 -12.7406 -12.4826
   -11.4454 -11.2033 -11.1958 -11.1075 -10.5903 -10.3363 -10.0263  -9.6070
    -9.4991  -9.4578  -9.4487  -9.3594  -9.3339  -9.1475  -9.0731  -8.9087
    -8.8774  -8.8684  -8.3587  -8.3292  -8.3160  -7.9758  -7.6568  -7.5554
    -7.5403  -7.3240  -7.3055  -6.3812  -6.2581  -6.1247  -5.9826  -5.6321
    -5.2672  -4.8345  -3.7997  -3.6183  -2.0472  -1.9679  -1.2812  -1.0056
     0.0207   0.1741   0.2372   0.2464   0.4381   0.6831   1.1851   1.3250

          k = 0.0500 0.0000 0.0000 ( 48323 PWs)   bands (ev):

   -21.9303 -21.0863 -20.6451 -20.3514 -19.8916 -19.7077 -19.4533 -18.6103
   -18.0658 -17.9661 -17.2301 -16.8941 -16.1927 -16.1411 -15.6501 -15.4661
   -15.2302 -14.7951 -14.5926 -13.5851 -13.1429 -12.7605 -12.7148 -12.5009
   -11.4262 -11.2510 -11.1811 -11.0656 -10.7438 -10.2156 -10.0220  -9.6700
    -9.6069  -9.5132  -9.3786  -9.3460  -9.2621  -9.1591  -9.0689  -8.8775
    -8.8690  -8.8248  -8.4993  -8.3665  -8.1683  -7.9343  -7.6523  -7.6211
    -7.5517  -7.3174  -7.2362  -6.3885  -6.3093  -6.1328  -5.9267  -5.6303
    -5.2697  -4.8597  -3.8354  -3.6337  -2.0350  -1.9310  -1.2514  -0.9989
    -0.0602   0.1658   0.2512   0.3209   0.4430   0.6880   1.1458   1.1905

          k = 0.1000 0.0000 0.0000 ( 48321 PWs)   bands (ev):

   -21.9194 -21.0757 -20.7736 -20.2035 -19.9874 -19.6977 -19.3386 -18.6803
   -17.9798 -17.9587 -17.2509 -17.0432 -16.2917 -16.1996 -15.4962 -15.4279
   -15.0792 -14.8339 -14.6280 -13.5320 -13.2344 -12.7056 -12.6402 -12.5522
   -11.3727 -11.3482 -11.1170 -11.0066 -10.9959 -10.0778 -10.0090  -9.8966
    -9.6079  -9.5557  -9.4522  -9.3074  -9.1914  -9.1397  -9.0563  -8.8159
    -8.8069  -8.7150  -8.6520  -8.4482  -7.9946  -7.8394  -7.7544  -7.6399
    -7.5405  -7.3523  -7.0823  -6.4110  -6.4097  -6.1571  -5.8122  -5.6249
    -5.2769  -4.9327  -3.9349  -3.6786  -1.9995  -1.8280  -1.1646  -0.9788
    -0.1967   0.1413   0.2658   0.4576   0.4662   0.7029   1.1611   1.2055

          k = 0.1500 0.0000 0.0000 ( 48343 PWs)   bands (ev):

   -21.9013 -21.0580 -20.8971 -20.0949 -20.0477 -19.6811 -19.1998 -18.7670
   -17.9467 -17.8664 -17.2832 -17.2360 -16.4791 -16.2226 -15.3664 -15.2865
   -14.8923 -14.8876 -14.6795 -13.4511 -13.3548 -12.6375 -12.6286 -12.5245
   -11.4626 -11.2952 -11.2700 -11.0181 -10.9512 -10.1250 -10.0312  -9.9874
    -9.6833  -9.6147  -9.4080  -9.2479  -9.2366  -9.1241  -9.0354  -8.7976
    -8.7302  -8.6875  -8.5645  -8.5407  -7.8900  -7.8141  -7.7230  -7.6232
    -7.5220  -7.4089  -6.9124  -6.5190  -6.4495  -6.1970  -5.6794  -5.6162
    -5.2887  -5.0469  -4.0811  -3.7494  -1.9440  -1.6758  -1.0273  -0.9460
    -0.3393   0.1017   0.2902   0.4819   0.6230   0.7276   1.1871   1.2305

          k = 0.2000 0.0000 0.0000 ( 48316 PWs)   bands (ev):

   -21.8760 -21.0332 -21.0143 -20.2024 -19.8861 -19.6579 -19.0486 -18.8576
   -17.9306 -17.7383 -17.4471 -17.3243 -16.6797 -16.2635 -15.2846 -15.0566
   -14.9356 -14.7399 -14.6947 -13.4903 -13.3496 -12.7225 -12.5600 -12.3770
   -11.5893 -11.5546 -11.2071 -10.8983 -10.8927 -10.3463 -10.0713  -9.9572
    -9.8500  -9.6368  -9.2807  -9.2767  -9.1742  -9.1736  -9.0061  -8.9356
    -8.6627  -8.6477  -8.5118  -8.3884  -8.0210  -7.6278  -7.6069  -7.5974
    -7.4960  -7.4851  -6.7336  -6.6271  -6.5052  -6.2517  -5.6042  -5.5385
    -5.3044  -5.1940  -4.2576  -3.8415  -1.8725  -1.4910  -0.9011  -0.8481
    -0.4810   0.0485   0.3243   0.5159   0.7623   0.7839   1.2235   1.2436

          k = 0.2500 0.0000 0.0000 ( 48274 PWs)   bands (ev):

   -21.8435 -21.1248 -21.0014 -20.3063 -19.7201 -19.6283 -18.9453 -18.8891
   -17.9114 -17.6651 -17.6016 -17.3712 -16.8831 -16.3233 -15.1853 -15.0160
   -14.8038 -14.7715 -14.5007 -13.6304 -13.2333 -12.8286 -12.4714 -12.2077
   -11.8451 -11.7237 -11.1313 -10.8455 -10.7488 -10.5408 -10.1626 -10.0217
    -9.9184  -9.6862  -9.3070  -9.2573  -9.1174  -9.0905  -9.0659  -8.9685
    -8.7389  -8.6087  -8.3488  -8.1968  -8.1456  -7.5956  -7.5785  -7.4673
    -7.4627  -7.4368  -6.7302  -6.5792  -6.5480  -6.3203  -5.5894  -5.3927
    -5.3655  -5.3234  -4.4523  -3.9505  -1.7887  -1.2856  -0.8451  -0.6356
    -0.6201  -0.0163   0.3681   0.5594   0.8069   0.9460   1.0186   1.2699

          k = 0.3000 0.0000 0.0000 ( 48332 PWs)   bands (ev):

   -21.8038 -21.2284 -20.9626 -20.4050 -19.5923 -19.5534 -19.0243 -18.7233
   -17.8913 -17.8842 -17.4593 -17.4210 -17.0830 -16.4025 -15.0715 -15.0552
   -14.8670 -14.5036 -14.3275 -13.7592 -13.1074 -12.9439 -12.3691 -12.1378
   -12.0385 -11.8477 -11.1242 -10.7908 -10.6539 -10.5935 -10.3070 -10.1648
    -9.8711  -9.7670  -9.3622  -9.3073  -9.1883  -9.0045  -8.9581  -8.9226
    -8.8289  -8.5668  -8.2631  -8.1937  -7.9974  -7.6865  -7.5938  -7.4222
    -7.3356  -7.2443  -6.8245  -6.6722  -6.4014  -6.3567  -5.5723  -5.5544
    -5.3449  -5.2437  -4.6570  -4.0726  -1.6954  -1.0675  -0.7794  -0.7558
    -0.3972  -0.0904   0.4216   0.6126   0.7915   0.8614   1.1073   1.1950

          k = 0.3500 0.0000 0.0000 ( 48318 PWs)   bands (ev):

   -21.7568 -21.3251 -20.9167 -20.4978 -19.5503 -19.4000 -19.0793 -18.5527
   -18.1014 -17.8755 -17.4707 -17.3138 -17.2723 -16.5004 -15.0809 -14.9458
   -14.9265 -14.2247 -14.2236 -13.8287 -13.0670 -12.9791 -12.4265 -12.2507
   -12.0531 -11.7801 -11.2386 -10.7325 -10.6330 -10.4985 -10.4331 -10.2720
    -9.8709  -9.8151  -9.4838  -9.3026  -9.2848  -8.9206  -8.9144  -8.8685
    -8.8177  -8.5267  -8.3732  -8.0534  -7.8066  -7.7963  -7.6051  -7.3745
    -7.2038  -7.0713  -6.8888  -6.7844  -6.4936  -6.1609  -5.7548  -5.5542
    -5.3675  -5.0927  -4.8660  -4.2047  -1.5948  -0.8878  -0.8424  -0.7053
    -0.1712  -0.1390   0.4849   0.5626   0.6752   0.9260   1.0651   1.2631

          k = 0.4000 0.0000 0.0000 ( 48268 PWs)   bands (ev):

   -21.7027 -21.4148 -20.8639 -20.5843 -19.5025 -19.3189 -19.0508 -18.3797
   -18.3147 -17.8776 -17.5169 -17.4360 -17.1671 -16.6146 -15.0897 -14.9798
   -14.8108 -14.2612 -13.9394 -13.7665 -13.1977 -12.8945 -12.6657 -12.1945
   -12.1148 -11.5795 -11.4167 -10.7084 -10.6698 -10.5356 -10.3645 -10.2773
    -9.9831  -9.7507  -9.6185  -9.4088  -9.2463  -8.9946  -8.8434  -8.8061
    -8.7267  -8.4756  -8.4602  -7.9363  -7.9304  -7.6323  -7.5985  -7.3200
    -7.0736  -7.0515  -6.9154  -6.7898  -6.5956  -5.9624  -5.9622  -5.5377
    -5.3893  -5.0736  -4.9406  -4.3442  -1.4882  -1.0160  -0.6247  -0.6154
    -0.2543   0.1342   0.3320   0.5578   0.7474   0.9448   1.0004   1.1300

          k = 0.4500 0.0000 0.0000 ( 48270 PWs)   bands (ev):

   -21.6414 -21.4974 -20.8042 -20.6643 -19.4497 -19.3412 -18.9074 -18.5225
   -18.2083 -17.9291 -17.5544 -17.5424 -17.0212 -16.7419 -15.0820 -15.0249
   -14.6692 -14.3823 -13.6503 -13.6303 -13.3361 -13.0772 -12.6324 -12.3451
   -11.9609 -11.6066 -11.3647 -10.9256 -10.6020 -10.4496 -10.4136 -10.1927
   -10.0334  -9.7630  -9.6778  -9.5068  -9.1960  -9.0689  -8.7776  -8.7355
    -8.7047  -8.5702  -8.3481  -8.0729  -7.8264  -7.6775  -7.4084  -7.2587
    -7.1196  -7.0643  -6.9464  -6.7060  -6.5933  -6.1732  -5.7665  -5.5338
    -5.4051  -5.2671  -4.7886  -4.4890  -1.3767  -1.1403  -0.5399  -0.4208
    -0.3057   0.1008   0.4183   0.6404   0.8289   0.8340   1.0052   1.0204

          k =-0.5000 0.0000 0.0000 ( 48248 PWs)   bands (ev):

   -21.5730 -21.5730 -20.7376 -20.7376 -19.3940 -19.3940 -18.7222 -18.7221
   -18.0492 -18.0492 -17.5719 -17.5719 -16.8785 -16.8785 -15.0597 -15.0597
   -14.5243 -14.5243 -13.4815 -13.4815 -13.3600 -13.3600 -12.4944 -12.4944
   -11.7904 -11.7904 -11.1454 -11.1454 -10.5287 -10.5286 -10.2872 -10.2872
    -9.9118  -9.9118  -9.5965  -9.5965  -9.1364  -9.1364  -8.7284  -8.7283
    -8.6569  -8.6569  -8.2126  -8.2126  -7.7421  -7.7421  -7.2294  -7.2294
    -7.1914  -7.1914  -6.8234  -6.8234  -6.3847  -6.3847  -5.5980  -5.5980
    -5.3899  -5.3899  -4.6377  -4.6376  -1.2606  -1.2606  -0.4551  -0.4551
    -0.1281  -0.1281   0.7099   0.7099   0.7324   0.7324   0.9200   0.9201

     the Fermi energy is    -2.9510 ev

!    total energy              =    -330.99902099 Ry
     estimated scf accuracy    <          4.0E-09 Ry
     smearing contrib. (-TS)   =      -0.00000000 Ry
     internal energy E=F+TS    =    -330.99902099 Ry

     The total energy is F=E-TS. E is the sum of the following terms:
     one-electron contribution =   -2540.80649916 Ry
     hartree contribution      =    1286.66428984 Ry
     xc contribution           =    -107.15900987 Ry
     ewald contribution        =    1030.30219820 Ry

     convergence has been achieved in  13 iterations

     Writing all to output data dir ./7agnr_2uc.save/
 
     init_run     :      5.38s CPU      5.63s WALL (       1 calls)
     electrons    :    107.32s CPU    109.82s WALL (       1 calls)

     Called by init_run:
     wfcinit      :      3.55s CPU      3.67s WALL (       1 calls)
     potinit      :      0.52s CPU      0.55s WALL (       1 calls)
     hinit0       :      0.74s CPU      0.77s WALL (       1 calls)

     Called by electrons:
     c_bands      :     90.55s CPU     91.85s WALL (      13 calls)
     sum_band     :     12.73s CPU     13.22s WALL (      13 calls)
     v_of_rho     :      2.49s CPU      2.79s WALL (      14 calls)
     newd         :      1.08s CPU      1.45s WALL (      14 calls)
     mix_rho      :      0.32s CPU      0.34s WALL (      13 calls)

     Called by c_bands:
     init_us_2    :      1.18s CPU      1.19s WALL (     162 calls)
     init_us_2:cp :      1.18s CPU      1.19s WALL (     162 calls)
     cegterg      :     85.92s CPU     87.14s WALL (      78 calls)

     Called by *egterg:
     cdiaghg      :      2.31s CPU      2.32s WALL (     429 calls)
     h_psi        :     59.43s CPU     60.04s WALL (     435 calls)
     s_psi        :      6.65s CPU      6.68s WALL (     435 calls)
     g_psi        :      0.13s CPU      0.13s WALL (     351 calls)

     Called by h_psi:
     h_psi:calbec :      6.72s CPU      6.75s WALL (     435 calls)
     vloc_psi     :     45.65s CPU     45.84s WALL (     435 calls)
     add_vuspsi   :      6.77s CPU      6.78s WALL (     435 calls)

     General routines
     calbec       :      8.71s CPU      8.75s WALL (     513 calls)
     fft          :      2.10s CPU      2.39s WALL (     180 calls)
     ffts         :      0.08s CPU      0.09s WALL (      27 calls)
     fftw         :     50.65s CPU     50.84s WALL (   37474 calls)
     interpolate  :      0.20s CPU      0.22s WALL (      14 calls)
 
     Parallel routines
 
     PWSCF        :   1m53.25s CPU   1m56.41s WALL

 
   This run was terminated on:  11:53:28  20Mar2023            

=------------------------------------------------------------------------------=
   JOB DONE.
=------------------------------------------------------------------------------=
