
     Program PWSCF v.7.1 starts on 17Mar2023 at 10:45:45 

     This program is part of the open-source Quantum ESPRESSO suite
     for quantum simulation of materials; please cite
         "P. Giannozzi et al., J. Phys.:Condens. Matter 21 395502 (2009);
         "P. Giannozzi et al., J. Phys.:Condens. Matter 29 465901 (2017);
         "P. Giannozzi et al., J. Chem. Phys. 152 154105 (2020);
          URL http://www.quantum-espresso.org", 
     in publications or presentations arising from this work. More details at
     http://www.quantum-espresso.org/quote

     Parallel version (MPI), running on     4 processors

     MPI processes distributed on     1 nodes
     428115 MiB available memory on the printing compute node when the environment starts
 
     Waiting for input...
     Reading input from standard input

     Current dimensions of program PWSCF are:
     Max number of different atomic species (ntypx) = 10
     Max number of k-points (npk) =  40000
     Max angular momentum in pseudopotentials (lmaxx) =  4

     Atomic positions and unit cell read from directory:
     ./7agnr_1uc.save/
     Atomic positions from file used, from input discarded
 
 
     K-points division:     npool     =       2
     R & G space division:  proc/nbgrp/npool/nimage =       2
     Subspace diagonalization in iterative solution of the eigenvalue problem:
     a serial algorithm will be used

 
     Parallelization info
     --------------------
     sticks:   dense  smooth     PW     G-vecs:    dense   smooth      PW
     Min        2929    1471    419               273167    96606   14864
     Max        2930    1472    422               273170    96607   14865
     Sum        5859    2943    841               546337   193213   29729
 
     Using Slab Decomposition
 


     bravais-lattice index     =            8
     lattice parameter (alat)  =       8.1256  a.u.
     unit-cell volume          =    8705.1005 (a.u.)^3
     number of atoms/cell      =           18
     number of atomic types    =            2
     number of electrons       =        60.00
     number of Kohn-Sham states=           50
     kinetic-energy cutoff     =      30.0000  Ry
     charge density cutoff     =     240.0000  Ry
     Exchange-correlation= PBE
                           (   1   4   3   4   0   0   0)

     celldm(1)=   8.125588  celldm(2)=   4.651297  celldm(3)=   3.488473
     celldm(4)=   0.000000  celldm(5)=   0.000000  celldm(6)=   0.000000

     crystal axes: (cart. coord. in units of alat)
               a(1) = (   1.000000   0.000000   0.000000 )  
               a(2) = (   0.000000   4.651297   0.000000 )  
               a(3) = (   0.000000   0.000000   3.488473 )  

     reciprocal axes: (cart. coord. in units 2 pi/alat)
               b(1) = (  1.000000  0.000000  0.000000 )  
               b(2) = (  0.000000  0.214994  0.000000 )  
               b(3) = (  0.000000  0.000000  0.286658 )  


     PseudoPot. # 1 for C  read from file:
     ../pseudo/C_pbe_v1.2.uspp.F.UPF
     MD5 check sum: d1aef80898a10debaa0f26306b886e00
     Pseudo is Ultrasoft + core correction, Zval =  4.0
     Generated by new atomic code, or converted to UPF format
     Using radial grid of  721 points,  4 beta functions with: 
                l(1) =   0
                l(2) =   0
                l(3) =   1
                l(4) =   1
     Q(r) pseudized with  8 coefficients,  rinner =    1.100   1.100   1.100


     PseudoPot. # 2 for H  read from file:
     ../pseudo/H.pbe-rrkjus_psl.0.1.UPF
     MD5 check sum: 36633979392af7100e6f6632747262d3
     Pseudo is Ultrasoft, Zval =  1.0
     Generated using "atomic" code by A. Dal Corso  v.5.0.99 svn rev. 10869
     Using radial grid of  929 points,  2 beta functions with: 
                l(1) =   0
                l(2) =   0
     Q(r) pseudized with 0 coefficients 


     atomic species   valence    mass     pseudopotential
        C              4.00    12.01070     C ( 1.00)
        H              1.00     1.00794     H ( 1.00)

      4 Sym. Ops. (no inversion) found



   Cartesian axes

     site n.     atom                  positions (alat units)
         1           C   tau(   1) = (   0.3406392   1.9866609   1.7442363  )
         2           C   tau(   2) = (   0.6593608   1.9866609   1.7442363  )
         3           C   tau(   3) = (   0.1675068   2.2670657   1.7442363  )
         4           C   tau(   4) = (   0.3330752   2.5529775   1.7442363  )
         5           C   tau(   5) = (   0.6669248   2.5529775   1.7442363  )
         6           C   tau(   6) = (   0.8324932   2.2670657   1.7442363  )
         7           C   tau(   7) = (   0.8346651   2.8405148   1.7442363  )
         8           C   tau(   8) = (   0.6669248   3.1280522   1.7442363  )
         9           C   tau(   9) = (   0.3330752   3.1280522   1.7442363  )
        10           C   tau(  10) = (   0.1653349   2.8405148   1.7442363  )
        11           C   tau(  11) = (   0.1675068   3.4139640   1.7442363  )
        12           C   tau(  12) = (   0.3406392   3.6943687   1.7442363  )
        13           C   tau(  13) = (   0.6593608   3.6943687   1.7442363  )
        14           C   tau(  14) = (   0.8324932   3.4139640   1.7442363  )
        15           H   tau(  15) = (   0.2210777   3.9172489   1.7442363  )
        16           H   tau(  16) = (   0.7789223   3.9172489   1.7442363  )
        17           H   tau(  17) = (   0.2210777   1.7637807   1.7442363  )
        18           H   tau(  18) = (   0.7789223   1.7637807   1.7442363  )

     number of k points=    30  Gaussian smearing, width (Ry)=  0.0010
                       cart. coord. in units 2pi/alat
        k(    1) = (   0.0000000   0.0000000   0.0000000), wk =   0.0666667
        k(    2) = (   0.0172410   0.0000000   0.0000000), wk =   0.0666667
        k(    3) = (   0.0344830   0.0000000   0.0000000), wk =   0.0666667
        k(    4) = (   0.0517240   0.0000000   0.0000000), wk =   0.0666667
        k(    5) = (   0.0689660   0.0000000   0.0000000), wk =   0.0666667
        k(    6) = (   0.0862070   0.0000000   0.0000000), wk =   0.0666667
        k(    7) = (   0.1034480   0.0000000   0.0000000), wk =   0.0666667
        k(    8) = (   0.1206900   0.0000000   0.0000000), wk =   0.0666667
        k(    9) = (   0.1379310   0.0000000   0.0000000), wk =   0.0666667
        k(   10) = (   0.1551720   0.0000000   0.0000000), wk =   0.0666667
        k(   11) = (   0.1724140   0.0000000   0.0000000), wk =   0.0666667
        k(   12) = (   0.1896550   0.0000000   0.0000000), wk =   0.0666667
        k(   13) = (   0.2068970   0.0000000   0.0000000), wk =   0.0666667
        k(   14) = (   0.2241380   0.0000000   0.0000000), wk =   0.0666667
        k(   15) = (   0.2413790   0.0000000   0.0000000), wk =   0.0666667
        k(   16) = (   0.2586210   0.0000000   0.0000000), wk =   0.0666667
        k(   17) = (   0.2758620   0.0000000   0.0000000), wk =   0.0666667
        k(   18) = (   0.2931030   0.0000000   0.0000000), wk =   0.0666667
        k(   19) = (   0.3103450   0.0000000   0.0000000), wk =   0.0666667
        k(   20) = (   0.3275860   0.0000000   0.0000000), wk =   0.0666667
        k(   21) = (   0.3448280   0.0000000   0.0000000), wk =   0.0666667
        k(   22) = (   0.3620690   0.0000000   0.0000000), wk =   0.0666667
        k(   23) = (   0.3793100   0.0000000   0.0000000), wk =   0.0666667
        k(   24) = (   0.3965520   0.0000000   0.0000000), wk =   0.0666667
        k(   25) = (   0.4137930   0.0000000   0.0000000), wk =   0.0666667
        k(   26) = (   0.4310340   0.0000000   0.0000000), wk =   0.0666667
        k(   27) = (   0.4482760   0.0000000   0.0000000), wk =   0.0666667
        k(   28) = (   0.4655170   0.0000000   0.0000000), wk =   0.0666667
        k(   29) = (   0.4827590   0.0000000   0.0000000), wk =   0.0666667
        k(   30) = (   0.5000000   0.0000000   0.0000000), wk =   0.0666667

     Dense  grid:   546337 G-vectors     FFT dimensions: (  45, 192, 144)

     Smooth grid:   193213 G-vectors     FFT dimensions: (  30, 135, 100)

     Estimated max dynamical RAM per process >     240.60 MB

     Estimated total dynamical RAM >     962.40 MB

     The potential is recalculated from file :
     ./7agnr_1uc.save/charge-density


     negative rho (up, down):  1.180E-03 0.000E+00
     Starting wfcs are   60 randomized atomic wfcs

     Band Structure Calculation
     Davidson diagonalization with overlap

     ethr =  1.67E-11,  avg # of iterations = 63.3

     total cpu time spent up to now is      209.3 secs

     End of band structure calculation

          k = 0.0000 0.0000 0.0000 ( 24103 PWs)   bands (ev):

   -21.9339 -21.0899 -19.7110 -17.9686 -16.8341 -16.1936 -16.0777 -15.7089
   -15.2939 -14.7810 -13.1058 -12.7845 -12.7407 -11.2033 -11.1958 -11.1075
   -10.0263  -9.6070  -9.3595  -9.1475  -9.0731  -7.6568  -7.5555  -7.3055
    -6.3812  -6.1247  -5.6322  -4.8345  -3.7997  -3.6183  -2.0473  -1.9679
    -1.2813   0.1740   0.2437   0.4365   0.6802   1.1353   1.1782   1.3200
     1.3999   1.6166   1.7154   1.8592   1.8948   2.4333   2.4867   2.6793
     2.6826   2.7425

          k = 0.0172 0.0000 0.0000 ( 24115 PWs)   bands (ev):

   -21.9322 -21.0882 -19.7094 -17.9674 -16.8635 -16.1929 -16.1091 -15.6804
   -15.2624 -14.7878 -13.1241 -12.7725 -12.7283 -11.2263 -11.1927 -11.0835
   -10.0243  -9.6070  -9.3530  -9.1531  -9.0711  -7.6546  -7.5537  -7.3112
    -6.3847  -6.1286  -5.6313  -4.8466  -3.8169  -3.6257  -2.0414  -1.9502
    -1.2671   0.1701   0.2460   0.4388   0.6826   1.1378   1.1806   1.3224
     1.4027   1.6190   1.7177   1.8616   1.8972   2.4356   2.4883   2.6817
     2.6850   2.7382

          k = 0.0345 0.0000 0.0000 ( 24105 PWs)   bands (ev):

   -21.9271 -21.0831 -19.7047 -17.9639 -16.9430 -16.1938 -16.1914 -15.6007
   -15.1798 -14.8073 -13.1730 -12.7420 -12.6919 -11.2854 -11.1614 -11.0430
   -10.0181  -9.6070  -9.3342  -9.1693  -9.0651  -7.6484  -7.5484  -7.3280
    -6.3953  -6.1401  -5.6287  -4.8821  -3.8665  -3.6475  -2.0242  -1.8989
    -1.2250   0.1583   0.2530   0.4457   0.6896   1.1453   1.1877   1.3295
     1.4111   1.6262   1.7248   1.8687   1.9044   2.4426   2.4927   2.6889
     2.6921   2.7255

          k = 0.0517 0.0000 0.0000 ( 24099 PWs)   bands (ev):

   -21.9185 -21.0747 -19.6968 -17.9581 -17.0555 -16.3039 -16.2007 -15.4831
   -15.0671 -14.8373 -13.2420 -12.7013 -12.6334 -11.3557 -11.1113 -11.0027
   -10.0078  -9.6082  -9.3039  -9.1943  -9.0552  -7.6389  -7.5395  -7.3556
    -6.4132  -6.1594  -5.6245  -4.9394  -3.9437  -3.6827  -1.9963  -1.8189
    -1.1567   0.1390   0.2645   0.4573   0.7014   1.1577   1.1996   1.3413
     1.4249   1.6382   1.7367   1.8806   1.9163   2.4542   2.4986   2.7009
     2.7040   2.7061

          k = 0.0690 0.0000 0.0000 ( 24119 PWs)   bands (ev):

   -21.9064 -21.0629 -19.6858 -17.9500 -17.1871 -16.4321 -16.2155 -15.3405
   -14.9391 -14.8740 -13.3240 -12.6549 -12.5557 -11.4337 -11.0448 -10.9643
    -9.9935  -9.6122  -9.2639  -9.2252  -9.0412  -7.6275  -7.5272  -7.3934
    -6.4388  -6.1860  -5.6186  -5.0161  -4.0425  -3.7302  -1.9591  -1.7161
    -1.0646   0.1125   0.2808   0.4735   0.7179   1.1750   1.2163   1.3578
     1.4442   1.6550   1.7533   1.8973   1.9330   2.4706   2.5025   2.6838
     2.7177   2.7207

          k = 0.0862 0.0000 0.0000 ( 24110 PWs)   bands (ev):

   -21.8909 -21.0478 -19.6716 -17.9400 -17.3293 -16.5682 -16.2387 -15.1829
   -14.9126 -14.8041 -13.4144 -12.6040 -12.4617 -11.5181 -10.9647 -10.9274
    -9.9750  -9.6220  -9.2576  -9.2161  -9.0233  -7.6156  -7.5113  -7.4408
    -6.4724  -6.2198  -5.6112  -5.1093  -4.1573  -3.7883  -1.9138  -1.5962
    -0.9517   0.0793   0.3016   0.4943   0.7391   1.1973   1.2377   1.3790
     1.4687   1.6765   1.7746   1.9188   1.9545   2.4916   2.4974   2.6663
     2.7392   2.7420

          k = 0.1034 0.0000 0.0000 ( 24098 PWs)   bands (ev):

   -21.8720 -21.0293 -19.6543 -17.9281 -17.4770 -16.7078 -16.2706 -15.0302
   -14.9353 -14.6675 -13.5096 -12.5485 -12.3547 -11.6076 -10.8911 -10.8738
    -9.9524  -9.6418  -9.2857  -9.1625  -9.0015  -7.6049  -7.4971  -7.4919
    -6.5144  -6.2604  -5.6023  -5.2164  -4.2836  -3.8557  -1.8617  -1.4638
    -0.8207   0.0401   0.3271   0.5196   0.7650   1.2244   1.2639   1.4049
     1.4985   1.7029   1.8007   1.9450   1.9808   2.4736   2.5173   2.6638
     2.7655   2.7681

          k = 0.1207 0.0000 0.0000 ( 24094 PWs)   bands (ev):

   -21.8496 -21.0074 -19.6339 -17.9149 -17.6274 -16.8482 -16.3116 -15.0093
   -14.8153 -14.5333 -13.6065 -12.4876 -12.2379 -11.7004 -10.8547 -10.7747
    -9.9258  -9.6754  -9.3043  -9.1052  -8.9756  -7.5970  -7.5613  -7.4690
    -6.5651  -6.3076  -5.5922  -5.3346  -4.4178  -3.9307  -1.8039  -1.3222
    -0.6743  -0.0045   0.3572   0.5496   0.7956   1.2563   1.2948   1.4355
     1.5335   1.7341   1.8315   1.9759   2.0118   2.4290   2.5476   2.6790
     2.7966   2.7989

          k = 0.1379 0.0000 0.0000 ( 24126 PWs)   bands (ev):

   -21.8239 -20.9822 -19.6105 -17.9010 -17.7785 -16.9874 -16.3619 -15.0373
   -14.6350 -14.4068 -13.7002 -12.4204 -12.1166 -11.7927 -10.8176 -10.6696
    -9.8950  -9.7245  -9.3104  -9.0461  -8.9459  -7.6328  -7.5933  -7.4427
    -6.6249  -6.3608  -5.5808  -5.4615  -4.5573  -4.0123  -1.7415  -1.1740
    -0.5152  -0.0537   0.3919   0.5840   0.8310   1.2930   1.3305   1.4708
     1.5735   1.7700   1.8672   2.0117   2.0476   2.3689   2.5826   2.7075
     2.8324   2.8344

          k = 0.1552 0.0000 0.0000 ( 24128 PWs)   bands (ev):

   -21.7947 -20.9537 -19.5842 -17.9294 -17.8875 -17.1234 -16.4213 -15.0618
   -14.4466 -14.2976 -13.7812 -12.3460 -12.0149 -11.8610 -10.7791 -10.5606
    -9.8602  -9.7870  -9.3043  -8.9868  -8.9121  -7.7105  -7.5950  -7.4129
    -6.6938  -6.4197  -5.5951  -5.5687  -4.7001  -4.0993  -1.6752  -1.0214
    -0.3453  -0.1068   0.4313   0.6231   0.8711   1.3341   1.3709   1.5109
     1.6185   1.8107   1.9075   2.0521   2.0881   2.2981   2.6222   2.7453
     2.8730   2.8746

          k = 0.1724 0.0000 0.0000 ( 24116 PWs)   bands (ev):

   -21.7620 -20.9218 -19.5549 -18.0791 -17.8767 -17.2535 -16.4895 -15.0790
   -14.2539 -14.2283 -13.8270 -12.2638 -12.0406 -11.7985 -10.7387 -10.4497
    -9.8595  -9.8214  -9.2880  -8.9290  -8.8745  -7.7937  -7.6032  -7.3798
    -6.7719  -6.4836  -5.7337  -5.5561  -4.8444  -4.1907  -1.6055  -0.8659
    -0.1665  -0.1627   0.4753   0.6666   0.9160   1.3796   1.4161   1.5556
     1.6685   1.8562   1.9527   2.0974   2.1335   2.2195   2.6665   2.7903
     2.9182   2.9195

          k = 0.1897 0.0000 0.0000 ( 24114 PWs)   bands (ev):

   -21.7260 -20.8866 -19.5229 -18.2271 -17.8730 -17.3730 -16.5656 -15.0882
   -14.2295 -14.0581 -13.8072 -12.1732 -12.1337 -11.6656 -10.6964 -10.3400
    -9.9372  -9.7784  -9.2639  -8.8743  -8.8329  -7.8817  -7.6190  -7.3434
    -6.8590  -6.5523  -5.8758  -5.5441  -4.9884  -4.2857  -1.5330  -0.7090
    -0.2202   0.0196   0.5239   0.7147   0.9656   1.4290   1.4660   1.6051
     1.7234   1.9062   2.0026   2.1354   2.1474   2.1835   2.7153   2.8415
     2.9682   2.9691

          k = 0.2069 0.0000 0.0000 ( 24108 PWs)   bands (ev):

   -21.6865 -20.8482 -19.4884 -18.3727 -17.8853 -17.4728 -16.6486 -15.0892
   -14.2903 -13.8600 -13.7324 -12.2358 -12.0741 -11.5210 -10.6516 -10.2393
   -10.0109  -9.7315  -9.2335  -8.8239  -8.7875  -7.9734  -7.6429  -7.3038
    -6.9548  -6.6253  -6.0202  -5.5345  -5.1295  -4.3837  -1.4580  -0.5541
    -0.2761   0.2116   0.5770   0.7672   1.0199   1.4814   1.5207   1.6593
     1.7832   1.9600   2.0489   2.0573   2.2021   2.2383   2.7686   2.8984
     3.0228   3.0233

          k = 0.2241 0.0000 0.0000 ( 24126 PWs)   bands (ev):

   -21.6437 -20.8064 -19.4517 -18.5154 -17.9262 -17.5401 -16.7373 -15.0826
   -14.3776 -13.6603 -13.6354 -12.3399 -11.9665 -11.3722 -10.6044 -10.1919
   -10.0353  -9.6805  -9.1980  -8.7796  -8.7381  -8.0681  -7.6757  -7.2610
    -7.0589  -6.7021  -6.1659  -5.5334  -5.2611  -4.4840  -1.3806  -0.4245
    -0.3070   0.4083   0.6348   0.8243   1.0790   1.5344   1.5800   1.7183
     1.8478   1.9557   2.0251   2.1167   2.2616   2.2978   2.8263   2.9607
     3.0820   3.0821

          k = 0.2414 0.0000 0.0000 ( 24140 PWs)   bands (ev):

   -21.5974 -20.7614 -19.4134 -18.6545 -18.0014 -17.5691 -16.8306 -15.0690
   -14.4745 -13.5329 -13.4600 -12.4435 -11.8510 -11.2213 -10.5546 -10.2465
    -9.9613  -9.6255  -9.1579  -8.7431  -8.6850  -8.1645  -7.7176  -7.2153
    -7.1707  -6.7822  -6.3119  -5.5616  -5.3622  -4.5861  -1.3011  -0.4290
    -0.2038   0.6087   0.6970   0.8858   1.1427   1.5807   1.6441   1.7819
     1.8777   1.9172   2.0879   2.1809   2.3258   2.3620   2.8883   3.0282
     3.1456   3.1456

          k = 0.2586 0.0000 0.0000 ( 24138 PWs)   bands (ev):

   -21.5478 -20.7131 -19.3749 -18.7883 -18.1015 -17.5694 -16.9272 -15.0491
   -14.5744 -13.4307 -13.2607 -12.5443 -11.7283 -11.0696 -10.5021 -10.3303
    -9.8607  -9.5666  -9.1140  -8.7167  -8.6279  -8.2605  -7.7689  -7.2897
    -7.1671  -6.8653  -6.4572  -5.6489  -5.4028  -4.6895  -1.2196  -0.4838
    -0.0500   0.7638   0.8115   0.9519   1.2113   1.5968   1.7128   1.8305
     1.8504   1.9915   2.1570   2.2498   2.3947   2.4308   2.9545   3.1007
     3.2135   3.2136

          k = 0.2759 0.0000 0.0000 ( 24144 PWs)   bands (ev):

   -21.4947 -20.6617 -19.3397 -18.9134 -18.2141 -17.5534 -17.0262 -15.0236
   -14.6742 -13.3312 -13.0680 -12.6366 -11.6001 -10.9181 -10.4468 -10.4180
    -9.7580  -9.5036  -9.0665  -8.7046  -8.5671  -8.3525  -7.8297  -7.4148
    -7.1172  -6.9507  -6.6005  -5.7731  -5.4048  -4.7939  -1.1361  -0.5429
     0.1087   0.8350   1.0153   1.0223   1.2845   1.5527   1.7862   1.8471
     1.9236   2.0704   2.2312   2.3234   2.4684   2.5043   3.0247   3.1783
     3.2854   3.2858

          k = 0.2931 0.0000 0.0000 ( 24152 PWs)   bands (ev):

   -21.4383 -20.6070 -19.3182 -19.0194 -18.3320 -17.5285 -17.1267 -14.9932
   -14.7723 -13.2352 -12.9152 -12.6867 -11.4690 -10.7679 -10.5034 -10.3886
    -9.6576  -9.4367  -9.0158  -8.7143  -8.5025  -8.4333  -7.8998  -7.5452
    -7.0685  -7.0382  -6.7384  -5.9078  -5.3948  -4.8987  -1.0508  -0.6017
     0.2682   0.9108   1.0972   1.2160   1.3624   1.4720   1.8643   1.9078
     2.0015   2.1539   2.3103   2.4017   2.5468   2.5824   3.0982   3.2608
     3.3600   3.3619

          k = 0.3103 0.0000 0.0000 ( 24180 PWs)   bands (ev):

   -21.3786 -20.5493 -19.3376 -19.0789 -18.4514 -17.4985 -17.2279 -14.9587
   -14.8677 -13.1428 -12.9139 -12.5830 -11.3398 -10.6203 -10.5807 -10.3273
    -9.5614  -9.3659  -8.9621  -8.7560  -8.4932  -8.4342  -7.9791  -7.6797
    -7.1273  -7.0362  -6.8556  -6.0447  -5.3807  -5.0036  -0.9635  -0.6588
     0.4275   0.9909   1.1765   1.3352   1.4450   1.4574   1.9469   1.9883
     2.0841   2.2420   2.3942   2.4847   2.6300   2.6650   3.1739   3.3482
     3.4339   3.4401

          k = 0.3276 0.0000 0.0000 ( 24202 PWs)   bands (ev):

   -21.3155 -20.4885 -19.4142 -19.0759 -18.5706 -17.4657 -17.3290 -14.9593
   -14.9206 -13.0540 -12.9921 -12.3973 -11.2225 -10.6401 -10.4775 -10.2618
    -9.4706  -9.2912  -8.9058  -8.8306  -8.5314  -8.3622  -8.0672  -7.8171
    -7.2174  -7.0857  -6.8862  -6.1813  -5.3652  -5.1084  -0.8744  -0.7134
     0.5862   1.0754   1.2474   1.2601   1.5323   1.6413   2.0342   2.0815
     2.1715   2.3342   2.4829   2.5722   2.7178   2.7521   3.2483   3.4405
     3.4884   3.5133

          k = 0.3448 0.0000 0.0000 ( 24204 PWs)   bands (ev):

   -21.2490 -20.4247 -19.5197 -19.0386 -18.6883 -17.4315 -17.4295 -15.0464
   -14.8797 -13.0807 -12.9688 -12.1983 -11.1385 -10.6600 -10.3440 -10.1891
    -9.3862  -9.2126  -8.9268  -8.8470  -8.5590  -8.2865  -8.1634  -7.9558
    -7.3083  -7.2052  -6.8420  -6.3165  -5.3496  -5.2126  -0.7835  -0.7647
     0.7442   1.1401   1.1643   1.3480   1.6243   1.8363   2.1260   2.1873
     2.2634   2.4303   2.5765   2.6643   2.8103   2.8433   3.3041   3.4505
     3.5291   3.5377

          k = 0.3621 0.0000 0.0000 ( 24168 PWs)   bands (ev):

   -21.1793 -20.3581 -19.6336 -18.9878 -18.8040 -17.5285 -17.3968 -15.1281
   -14.8368 -13.1691 -12.8872 -11.9966 -11.1136 -10.6149 -10.2297 -10.1014
    -9.3093  -9.1302  -9.0339  -8.7859  -8.5859  -8.2670  -8.2073  -8.0942
    -7.3993  -7.3371  -6.7806  -6.4497  -5.3344  -5.3160  -0.8123  -0.6908
     0.9014   1.0297   1.2574   1.4400   1.7209   2.0226   2.2222   2.3091
     2.3598   2.5292   2.6750   2.7607   2.9075   2.9376   3.2742   3.3372
     3.4296   3.5189

          k = 0.3793 0.0000 0.0000 ( 24200 PWs)   bands (ev):

   -21.1063 -20.2888 -19.7490 -18.9306 -18.9171 -17.6256 -17.3629 -15.2035
   -14.7928 -13.2542 -12.8096 -11.7948 -11.1417 -10.5109 -10.1436  -9.9931
    -9.2413  -9.1455  -9.0440  -8.7231  -8.6171  -8.3768  -8.2306  -8.1246
    -7.4900  -7.4700  -6.7130  -6.5804  -5.4181  -5.3200  -0.8556  -0.5964
     0.9180   1.0575   1.3548   1.5360   1.8222   2.1923   2.3227   2.4525
     2.4605   2.6285   2.7783   2.8604   3.0092   3.0276   3.1693   3.2099
     3.2983   3.5844

          k = 0.3966 0.0000 0.0000 ( 24222 PWs)   bands (ev):

   -21.0300 -20.2171 -19.8634 -19.0270 -18.8700 -17.7199 -17.3305 -15.2719
   -14.7487 -13.3343 -12.7366 -11.5945 -11.1952 -10.3754 -10.0813  -9.8740
    -9.2556  -9.1841  -8.9541  -8.6599  -8.6544  -8.4896  -8.3627  -8.0386
    -7.6017  -7.5796  -6.7084  -6.6418  -5.5186  -5.3069  -0.8941  -0.5004
     0.8061   1.2126   1.4564   1.6360   1.9280   2.3430   2.4268   2.5648
     2.6188   2.7197   2.8868   2.9477   3.0182   3.0894   3.1137   3.1644
     3.1667   3.5600

          k = 0.4138 0.0000 0.0000 ( 24234 PWs)   bands (ev):

   -20.9505 -20.1434 -19.9760 -19.1332 -18.8077 -17.8104 -17.3007 -15.3321
   -14.7059 -13.4078 -12.6690 -11.3966 -11.2560 -10.2259 -10.0411  -9.7559
    -9.3555  -9.1412  -8.8604  -8.6984  -8.6275  -8.5715  -8.4881  -7.9495
    -7.7313  -7.6675  -6.8332  -6.5680  -5.6170  -5.2953  -0.9274  -0.4031
     0.6948   1.3667   1.5619   1.7395   2.0384   2.4802   2.5326   2.6703
     2.7633   2.8013   2.8617   3.0007   3.0180   3.0286   3.0874   3.2278
     3.2670   3.4009

          k = 0.4310 0.0000 0.0000 ( 24226 PWs)   bands (ev):

   -20.8679 -20.0860 -20.0688 -19.2347 -18.7455 -17.8955 -17.2745 -15.3833
   -14.6660 -13.4728 -12.6084 -11.3155 -11.2027 -10.0702 -10.0331  -9.6467
    -9.4299  -9.1198  -8.7631  -8.7482  -8.7231  -8.6036  -8.5187  -7.8583
    -7.8576  -7.7522  -6.9544  -6.4926  -5.7124  -5.2855  -0.9551  -0.3049
     0.5846   1.5195   1.6711   1.8462   2.1532   2.6115   2.6205   2.6958
     2.7534   2.7593   2.9193   2.9904   3.0604   3.1213   3.2001   3.2423
     3.3430   3.3820

          k = 0.4483 0.0000 0.0000 ( 24226 PWs)   bands (ev):

   -20.7823 -20.1930 -19.9947 -19.3296 -18.6860 -17.9727 -17.2528 -15.4244
   -14.6312 -13.5273 -12.5568 -11.3680 -11.0144 -10.0713  -9.9124  -9.5617
    -9.4539  -9.1354  -8.8093  -8.8016  -8.7058  -8.6623  -8.4545  -7.9824
    -7.8318  -7.7638  -7.0710  -6.4172  -5.8035  -5.2777  -0.9770  -0.2065
     0.4767   1.6707   1.7835   1.9553   2.2719   2.5627   2.5719   2.7208
     2.7417   2.7957   2.9456   3.0916   3.1625   3.1749   3.2530   3.3192
     3.4620   3.4948

          k = 0.4655 0.0000 0.0000 ( 24188 PWs)   bands (ev):

   -20.6942 -20.2965 -19.9251 -19.4142 -18.6336 -18.0378 -17.2365 -15.4545
   -14.6037 -13.5687 -12.5169 -11.4095 -10.8354 -10.1560  -9.7553  -9.5239
    -9.4109  -9.2041  -8.8573  -8.8533  -8.7892  -8.5580  -8.3946  -8.1033
    -7.9022  -7.6703  -7.1809  -6.3450  -5.8868  -5.2719  -0.9929  -0.1101
     0.3735   1.8192   1.8976   2.0645   2.3837   2.4351   2.4520   2.6074
     2.8731   2.9078   2.9476   3.0574   3.2813   3.3329   3.3932   3.4313
     3.4642   3.4686

          k = 0.4828 0.0000 0.0000 ( 24200 PWs)   bands (ev):

   -20.6055 -20.3946 -19.8691 -19.4791 -18.5956 -18.0834 -17.2265 -15.4729
   -14.5860 -13.5949 -12.4915 -11.4362 -10.6760 -10.2659  -9.6013  -9.5063
    -9.3564  -9.3169  -8.8933  -8.8741  -8.8470  -8.4509  -8.3480  -8.2205
    -7.9551  -7.5846  -7.2764  -6.2847  -5.9539  -5.2685  -1.0024  -0.0234
     0.2826   1.9606   2.0079   2.1662   2.2991   2.3137   2.4987   2.5319
     2.8014   3.0061   3.0360   3.1830   3.2875   3.3126   3.4041   3.4511
     3.4805   3.5748

          k = 0.5000 0.0000 0.0000 ( 24218 PWs)   bands (ev):

   -20.5420 -20.4611 -19.8457 -19.5055 -18.5813 -18.1002 -17.2230 -15.4791
   -14.5799 -13.6038 -12.4827 -11.4454 -10.5904 -10.3363  -9.4992  -9.4578
    -9.4488  -9.3339  -8.9088  -8.8775  -8.8684  -8.3587  -8.3293  -8.3160
    -7.9759  -7.5403  -7.3240  -6.2581  -5.9827  -5.2673  -1.0056   0.0206
     0.2371   2.0504   2.0740   2.2110   2.2210   2.2459   2.4413   2.6554
     2.6722   3.1185   3.1383   3.1737   3.2058   3.3145   3.3154   3.4893
     3.6066   3.6197

     Writing all to output data dir ./7agnr_1uc.save/
 
     init_run     :      0.99s CPU      1.26s WALL (       1 calls)
     electrons    :    196.58s CPU    207.83s WALL (       1 calls)

     Called by init_run:
     wfcinit      :      0.00s CPU      0.00s WALL (       1 calls)
     potinit      :      0.33s CPU      0.46s WALL (       1 calls)
     hinit0       :      0.38s CPU      0.41s WALL (       1 calls)

     Called by electrons:
     c_bands      :    196.58s CPU    207.83s WALL (       1 calls)
     v_of_rho     :      0.27s CPU      0.37s WALL (       1 calls)
     newd         :      0.10s CPU      0.16s WALL (       1 calls)

     Called by c_bands:
     init_us_2    :      0.08s CPU      0.09s WALL (      15 calls)
     init_us_2:cp :      0.08s CPU      0.09s WALL (      15 calls)
     cegterg      :    157.33s CPU    166.44s WALL (      45 calls)

     Called by *egterg:
     cdiaghg      :      2.09s CPU      2.13s WALL (     763 calls)
     h_psi        :    109.04s CPU    118.29s WALL (     808 calls)
     s_psi        :      9.68s CPU      9.70s WALL (     808 calls)
     g_psi        :      0.37s CPU      0.37s WALL (     748 calls)

     Called by h_psi:
     h_psi:calbec :      7.49s CPU      7.59s WALL (     808 calls)
     vloc_psi     :     91.11s CPU    100.21s WALL (     808 calls)
     add_vuspsi   :      9.69s CPU      9.72s WALL (     808 calls)

     General routines
     calbec       :      7.48s CPU      7.59s WALL (     808 calls)
     fft          :      0.20s CPU      0.27s WALL (      13 calls)
     ffts         :      0.00s CPU      0.01s WALL (       1 calls)
     fftw         :     81.92s CPU     89.97s WALL (   38316 calls)
     interpolate  :      0.02s CPU      0.03s WALL (       1 calls)
     davcio       :      0.01s CPU      0.10s WALL (      30 calls)
 
     Parallel routines
 
     PWSCF        :   3m17.81s CPU   3m30.27s WALL

 
   This run was terminated on:  10:49:15  17Mar2023            

=------------------------------------------------------------------------------=
   JOB DONE.
=------------------------------------------------------------------------------=
