
     Program PWSCF v.7.1 starts on 17Mar2023 at 10:43: 4 

     This program is part of the open-source Quantum ESPRESSO suite
     for quantum simulation of materials; please cite
         "P. Giannozzi et al., J. Phys.:Condens. Matter 21 395502 (2009);
         "P. Giannozzi et al., J. Phys.:Condens. Matter 29 465901 (2017);
         "P. Giannozzi et al., J. Chem. Phys. 152 154105 (2020);
          URL http://www.quantum-espresso.org", 
     in publications or presentations arising from this work. More details at
     http://www.quantum-espresso.org/quote

     Parallel version (MPI), running on     4 processors

     MPI processes distributed on     1 nodes
     423936 MiB available memory on the printing compute node when the environment starts
 
     Waiting for input...
     Reading input from standard input

     Current dimensions of program PWSCF are:
     Max number of different atomic species (ntypx) = 10
     Max number of k-points (npk) =  40000
     Max angular momentum in pseudopotentials (lmaxx) =  4
 
     K-points division:     npool     =       2
     R & G space division:  proc/nbgrp/npool/nimage =       2
     Subspace diagonalization in iterative solution of the eigenvalue problem:
     a serial algorithm will be used

 
     Parallelization info
     --------------------
     sticks:   dense  smooth     PW     G-vecs:    dense   smooth      PW
     Min        2929    1471    419               273167    96606   14864
     Max        2930    1472    422               273170    96607   14865
     Sum        5859    2943    841               546337   193213   29729
 
     Using Slab Decomposition
 


     bravais-lattice index     =            8
     lattice parameter (alat)  =       8.1256  a.u.
     unit-cell volume          =    8705.1005 (a.u.)^3
     number of atoms/cell      =           18
     number of atomic types    =            2
     number of electrons       =        60.00
     number of Kohn-Sham states=           36
     kinetic-energy cutoff     =      30.0000  Ry
     charge density cutoff     =     240.0000  Ry
     scf convergence threshold =      1.0E-08
     mixing beta               =       0.2500
     number of iterations used =            8  plain     mixing
     Exchange-correlation= PBE
                           (   1   4   3   4   0   0   0)

     celldm(1)=   8.125588  celldm(2)=   4.651297  celldm(3)=   3.488473
     celldm(4)=   0.000000  celldm(5)=   0.000000  celldm(6)=   0.000000

     crystal axes: (cart. coord. in units of alat)
               a(1) = (   1.000000   0.000000   0.000000 )  
               a(2) = (   0.000000   4.651297   0.000000 )  
               a(3) = (   0.000000   0.000000   3.488473 )  

     reciprocal axes: (cart. coord. in units 2 pi/alat)
               b(1) = (  1.000000  0.000000  0.000000 )  
               b(2) = (  0.000000  0.214994  0.000000 )  
               b(3) = (  0.000000  0.000000  0.286658 )  


     PseudoPot. # 1 for C  read from file:
     ../pseudo/C_pbe_v1.2.uspp.F.UPF
     MD5 check sum: d1aef80898a10debaa0f26306b886e00
     Pseudo is Ultrasoft + core correction, Zval =  4.0
     Generated by new atomic code, or converted to UPF format
     Using radial grid of  721 points,  4 beta functions with: 
                l(1) =   0
                l(2) =   0
                l(3) =   1
                l(4) =   1
     Q(r) pseudized with  8 coefficients,  rinner =    1.100   1.100   1.100


     PseudoPot. # 2 for H  read from file:
     ../pseudo/H.pbe-rrkjus_psl.0.1.UPF
     MD5 check sum: 36633979392af7100e6f6632747262d3
     Pseudo is Ultrasoft, Zval =  1.0
     Generated using "atomic" code by A. Dal Corso  v.5.0.99 svn rev. 10869
     Using radial grid of  929 points,  2 beta functions with: 
                l(1) =   0
                l(2) =   0
     Q(r) pseudized with 0 coefficients 


     atomic species   valence    mass     pseudopotential
        C              4.00    12.01070     C ( 1.00)
        H              1.00     1.00794     H ( 1.00)

      4 Sym. Ops. (no inversion) found



   Cartesian axes

     site n.     atom                  positions (alat units)
         1           C   tau(   1) = (   0.3406392   1.9866609   1.7442363  )
         2           C   tau(   2) = (   0.6593608   1.9866609   1.7442363  )
         3           C   tau(   3) = (   0.1675068   2.2670657   1.7442363  )
         4           C   tau(   4) = (   0.3330752   2.5529775   1.7442363  )
         5           C   tau(   5) = (   0.6669248   2.5529775   1.7442363  )
         6           C   tau(   6) = (   0.8324932   2.2670657   1.7442363  )
         7           C   tau(   7) = (   0.8346651   2.8405148   1.7442363  )
         8           C   tau(   8) = (   0.6669248   3.1280522   1.7442363  )
         9           C   tau(   9) = (   0.3330752   3.1280522   1.7442363  )
        10           C   tau(  10) = (   0.1653349   2.8405148   1.7442363  )
        11           C   tau(  11) = (   0.1675068   3.4139640   1.7442363  )
        12           C   tau(  12) = (   0.3406392   3.6943687   1.7442363  )
        13           C   tau(  13) = (   0.6593608   3.6943687   1.7442363  )
        14           C   tau(  14) = (   0.8324932   3.4139640   1.7442363  )
        15           H   tau(  15) = (   0.2210777   3.9172489   1.7442363  )
        16           H   tau(  16) = (   0.7789223   3.9172489   1.7442363  )
        17           H   tau(  17) = (   0.2210777   1.7637807   1.7442363  )
        18           H   tau(  18) = (   0.7789223   1.7637807   1.7442363  )

     number of k points=    21  Gaussian smearing, width (Ry)=  0.0010
                       cart. coord. in units 2pi/alat
        k(    1) = (   0.0000000   0.0000000   0.0000000), wk =   0.0500000
        k(    2) = (   0.0250000   0.0000000   0.0000000), wk =   0.1000000
        k(    3) = (   0.0500000   0.0000000   0.0000000), wk =   0.1000000
        k(    4) = (   0.0750000   0.0000000   0.0000000), wk =   0.1000000
        k(    5) = (   0.1000000   0.0000000   0.0000000), wk =   0.1000000
        k(    6) = (   0.1250000   0.0000000   0.0000000), wk =   0.1000000
        k(    7) = (   0.1500000   0.0000000   0.0000000), wk =   0.1000000
        k(    8) = (   0.1750000   0.0000000   0.0000000), wk =   0.1000000
        k(    9) = (   0.2000000   0.0000000   0.0000000), wk =   0.1000000
        k(   10) = (   0.2250000   0.0000000   0.0000000), wk =   0.1000000
        k(   11) = (   0.2500000   0.0000000   0.0000000), wk =   0.1000000
        k(   12) = (   0.2750000   0.0000000   0.0000000), wk =   0.1000000
        k(   13) = (   0.3000000   0.0000000   0.0000000), wk =   0.1000000
        k(   14) = (   0.3250000   0.0000000   0.0000000), wk =   0.1000000
        k(   15) = (   0.3500000   0.0000000   0.0000000), wk =   0.1000000
        k(   16) = (   0.3750000   0.0000000   0.0000000), wk =   0.1000000
        k(   17) = (   0.4000000   0.0000000   0.0000000), wk =   0.1000000
        k(   18) = (   0.4250000   0.0000000   0.0000000), wk =   0.1000000
        k(   19) = (   0.4500000   0.0000000   0.0000000), wk =   0.1000000
        k(   20) = (   0.4750000   0.0000000   0.0000000), wk =   0.1000000
        k(   21) = (  -0.5000000   0.0000000   0.0000000), wk =   0.0500000

     Dense  grid:   546337 G-vectors     FFT dimensions: (  45, 192, 144)

     Smooth grid:   193213 G-vectors     FFT dimensions: (  30, 135, 100)

     Estimated max dynamical RAM per process >     386.60 MB

     Estimated total dynamical RAM >       1.38 GB

     Initial potential from superposition of free atoms

     starting charge      59.9994, renormalised to      60.0000

     negative rho (up, down):  2.754E-03 0.000E+00
     Starting wfcs are   60 randomized atomic wfcs

     total cpu time spent up to now is        6.8 secs

     Self-consistent Calculation

     iteration #  1     ecut=    30.00 Ry     beta= 0.25
     Davidson diagonalization with overlap
     ethr =  1.00E-02,  avg # of iterations =  2.0

     negative rho (up, down):  1.747E-03 0.000E+00

     total cpu time spent up to now is       18.8 secs

     total energy              =    -165.75587847 Ry
     estimated scf accuracy    <       1.84366848 Ry

     iteration #  2     ecut=    30.00 Ry     beta= 0.25
     Davidson diagonalization with overlap
     ethr =  3.07E-03,  avg # of iterations =  1.2

     negative rho (up, down):  2.357E-03 0.000E+00

     total cpu time spent up to now is       27.4 secs

     total energy              =    -165.36858057 Ry
     estimated scf accuracy    <       0.75487871 Ry

     iteration #  3     ecut=    30.00 Ry     beta= 0.25
     Davidson diagonalization with overlap
     ethr =  1.26E-03,  avg # of iterations =  5.8

     negative rho (up, down):  1.609E-03 0.000E+00

     total cpu time spent up to now is       40.7 secs

     total energy              =    -165.49679914 Ry
     estimated scf accuracy    <       0.05562576 Ry

     iteration #  4     ecut=    30.00 Ry     beta= 0.25
     Davidson diagonalization with overlap
     ethr =  9.27E-05,  avg # of iterations = 12.6

     negative rho (up, down):  2.239E-03 0.000E+00

     total cpu time spent up to now is       54.9 secs

     total energy              =    -165.49798317 Ry
     estimated scf accuracy    <       0.01720353 Ry

     iteration #  5     ecut=    30.00 Ry     beta= 0.25
     Davidson diagonalization with overlap
     ethr =  2.87E-05,  avg # of iterations =  8.9

     negative rho (up, down):  1.567E-03 0.000E+00

     total cpu time spent up to now is       68.4 secs

     total energy              =    -165.49895962 Ry
     estimated scf accuracy    <       0.00235840 Ry

     iteration #  6     ecut=    30.00 Ry     beta= 0.25
     Davidson diagonalization with overlap
     ethr =  3.93E-06,  avg # of iterations =  7.8

     negative rho (up, down):  1.393E-03 0.000E+00

     total cpu time spent up to now is       83.2 secs

     total energy              =    -165.49937606 Ry
     estimated scf accuracy    <       0.00096384 Ry

     iteration #  7     ecut=    30.00 Ry     beta= 0.25
     Davidson diagonalization with overlap
     ethr =  1.61E-06,  avg # of iterations =  2.1

     negative rho (up, down):  1.206E-03 0.000E+00

     total cpu time spent up to now is       94.2 secs

     total energy              =    -165.49950181 Ry
     estimated scf accuracy    <       0.00002090 Ry

     iteration #  8     ecut=    30.00 Ry     beta= 0.25
     Davidson diagonalization with overlap
     ethr =  3.48E-08,  avg # of iterations =  2.9

     negative rho (up, down):  1.073E-03 0.000E+00

     total cpu time spent up to now is      106.0 secs

     total energy              =    -165.49950352 Ry
     estimated scf accuracy    <       0.00001804 Ry

     iteration #  9     ecut=    30.00 Ry     beta= 0.25
     Davidson diagonalization with overlap
     ethr =  3.01E-08,  avg # of iterations =  2.0

     negative rho (up, down):  1.037E-03 0.000E+00

     total cpu time spent up to now is      116.8 secs

     total energy              =    -165.49950694 Ry
     estimated scf accuracy    <       0.00000087 Ry

     iteration # 10     ecut=    30.00 Ry     beta= 0.25
     Davidson diagonalization with overlap
     ethr =  1.45E-09,  avg # of iterations =  2.2

     negative rho (up, down):  1.037E-03 0.000E+00

     total cpu time spent up to now is      127.6 secs

     total energy              =    -165.49950745 Ry
     estimated scf accuracy    <       0.00000022 Ry

     iteration # 11     ecut=    30.00 Ry     beta= 0.25
     Davidson diagonalization with overlap
     ethr =  3.69E-10,  avg # of iterations =  2.0

     negative rho (up, down):  1.054E-03 0.000E+00

     total cpu time spent up to now is      138.8 secs

     total energy              =    -165.49950780 Ry
     estimated scf accuracy    <       0.00000003 Ry

     iteration # 12     ecut=    30.00 Ry     beta= 0.25
     Davidson diagonalization with overlap
     ethr =  5.16E-11,  avg # of iterations =  2.0

     negative rho (up, down):  1.075E-03 0.000E+00

     total cpu time spent up to now is      148.7 secs

     total energy              =    -165.49950803 Ry
     estimated scf accuracy    <       0.00000002 Ry

     iteration # 13     ecut=    30.00 Ry     beta= 0.25
     Davidson diagonalization with overlap
     ethr =  3.50E-11,  avg # of iterations =  2.0

     negative rho (up, down):  1.180E-03 0.000E+00

     total cpu time spent up to now is      159.0 secs

     End of self-consistent calculation

          k = 0.0000 0.0000 0.0000 ( 24103 PWs)   bands (ev):

   -21.9341 -21.0900 -19.7111 -17.9687 -16.8342 -16.1937 -16.0778 -15.7090
   -15.2940 -14.7811 -13.1059 -12.7846 -12.7408 -11.2034 -11.1959 -11.1076
   -10.0264  -9.6071  -9.3595  -9.1475  -9.0732  -7.6569  -7.5556  -7.3056
    -6.3813  -6.1248  -5.6322  -4.8347  -3.7998  -3.6184  -2.0474  -1.9680
    -1.2814   0.1739   0.2464   0.4382

          k = 0.0250 0.0000 0.0000 ( 24117 PWs)   bands (ev):

   -21.9305 -21.0865 -19.7078 -17.9662 -16.8942 -16.1929 -16.1412 -15.6503
   -15.2304 -14.7952 -13.1431 -12.7606 -12.7149 -11.2511 -11.1812 -11.0657
   -10.0221  -9.6070  -9.3461  -9.1592  -9.0690  -7.6524  -7.5518  -7.3175
    -6.3887  -6.1329  -5.6304  -4.8598  -3.8356  -3.6338  -2.0351  -1.9311
    -1.2516   0.1657   0.2513   0.4430

          k = 0.0500 0.0000 0.0000 ( 24107 PWs)   bands (ev):

   -21.9196 -21.0758 -19.6978 -17.9588 -17.0434 -16.2919 -16.1998 -15.4963
   -15.0794 -14.8340 -13.2345 -12.7057 -12.6403 -11.3484 -11.1172 -11.0067
   -10.0092  -9.6081  -9.3075  -9.1915  -9.0565  -7.6400  -7.5407  -7.3524
    -6.4112  -6.1572  -5.6251  -4.9328  -3.9350  -3.6787  -1.9997  -1.8281
    -1.1647   0.1412   0.2659   0.4576

          k = 0.0750 0.0000 0.0000 ( 24109 PWs)   bands (ev):

   -21.9015 -21.0581 -19.6812 -17.9468 -17.2362 -16.4793 -16.2228 -15.2867
   -14.8924 -14.8877 -13.3550 -12.6377 -12.5246 -11.4627 -11.0182 -10.9513
    -9.9876  -9.6149  -9.2480  -9.2367  -9.0355  -7.6234  -7.5221  -7.4090
    -6.4497  -6.1972  -5.6163  -5.0471  -4.0812  -3.7495  -1.9442  -1.6760
    -1.0275   0.1016   0.2902   0.4819

          k = 0.1000 0.0000 0.0000 ( 24098 PWs)   bands (ev):

   -21.8762 -21.0334 -19.6581 -17.9307 -17.4473 -16.6798 -16.2636 -15.0568
   -14.9358 -14.6948 -13.4904 -12.5601 -12.3771 -11.5894 -10.8984 -10.8928
    -9.9574  -9.6369  -9.2808  -9.1737  -9.0063  -7.6070  -7.4961  -7.4852
    -6.5054  -6.2519  -5.6043  -5.1941  -4.2577  -3.8416  -1.8727  -1.4912
    -0.8483   0.0484   0.3243   0.5159

          k = 0.1250 0.0000 0.0000 ( 24090 PWs)   bands (ev):

   -21.8437 -21.0015 -19.6285 -17.9115 -17.6653 -16.8833 -16.3234 -15.0161
   -14.7717 -14.5008 -13.6306 -12.4715 -12.2078 -11.7239 -10.8456 -10.7489
    -9.9186  -9.6863  -9.3071  -9.0906  -8.9687  -7.5957  -7.5786  -7.4628
    -6.5793  -6.3204  -5.5895  -5.3657  -4.4524  -3.9507  -1.7888  -1.2858
    -0.6358  -0.0164   0.3681   0.5594

          k = 0.1500 0.0000 0.0000 ( 24136 PWs)   bands (ev):

   -21.8039 -20.9627 -19.5925 -17.8915 -17.8844 -17.0832 -16.4027 -15.0553
   -14.5038 -14.3277 -13.7593 -12.3692 -12.0386 -11.8478 -10.7908 -10.5936
    -9.8712  -9.7671  -9.3074  -9.0046  -8.9228  -7.6866  -7.5939  -7.4223
    -6.6723  -6.4015  -5.5724  -5.5545  -4.6572  -4.0728  -1.6955  -1.0677
    -0.3974  -0.0905   0.4216   0.6127

          k = 0.1750 0.0000 0.0000 ( 24120 PWs)   bands (ev):

   -21.7570 -20.9169 -19.5504 -18.1016 -17.8756 -17.2724 -16.5006 -15.0810
   -14.2248 -14.2237 -13.8288 -12.2508 -12.0532 -11.7803 -10.7326 -10.4332
    -9.8710  -9.8153  -9.2850  -8.9207  -8.8686  -7.8067  -7.6052  -7.3747
    -6.7845  -6.4937  -5.7549  -5.5543  -4.8662  -4.2048  -1.5949  -0.8425
    -0.1713  -0.1392   0.4849   0.6752

          k = 0.2000 0.0000 0.0000 ( 24106 PWs)   bands (ev):

   -21.7029 -20.8641 -19.5026 -18.3149 -17.8778 -17.4362 -16.6148 -15.0898
   -14.2613 -13.9396 -13.7666 -12.1946 -12.1149 -11.5797 -10.6699 -10.2774
    -9.9832  -9.7509  -9.2465  -8.8435  -8.8062  -7.9363  -7.6324  -7.3201
    -6.9155  -6.5957  -5.9623  -5.5379  -5.0738  -4.3443  -1.4884  -0.6155
    -0.2544   0.1340   0.5579   0.7474

          k = 0.2250 0.0000 0.0000 ( 24126 PWs)   bands (ev):

   -21.6416 -20.8043 -19.4499 -18.5226 -17.9293 -17.5425 -16.7420 -15.0822
   -14.3824 -13.6504 -13.6304 -12.3452 -11.9610 -11.3648 -10.6021 -10.1928
   -10.0336  -9.6780  -9.1962  -8.7777  -8.7357  -8.0730  -7.6777  -7.2589
    -7.0644  -6.7061  -6.1733  -5.5339  -5.2673  -4.4892  -1.3768  -0.4209
    -0.3058   0.4181   0.6404   0.8295

          k = 0.2500 0.0000 0.0000 ( 24124 PWs)   bands (ev):

   -21.5731 -20.7378 -19.3941 -18.7223 -18.0493 -17.5721 -16.8786 -15.0598
   -14.5244 -13.4817 -13.3602 -12.4945 -11.7905 -11.1456 -10.5287 -10.2873
    -9.9119  -9.5967  -9.1365  -8.7285  -8.6570  -8.2127  -7.7422  -7.2295
    -7.1916  -6.8235  -6.3848  -5.5981  -5.3900  -4.6378  -1.2607  -0.4553
    -0.1283   0.7098   0.7324   0.9202

          k = 0.2750 0.0000 0.0000 ( 24144 PWs)   bands (ev):

   -21.4976 -20.6644 -19.3414 -18.9076 -18.2084 -17.5545 -17.0213 -15.0251
   -14.6693 -13.3362 -13.0774 -12.6325 -11.6067 -10.9257 -10.4497 -10.4137
    -9.7632  -9.5070  -9.0690  -8.7048  -8.5704  -8.3482  -7.8265  -7.4085
    -7.1198  -6.9465  -6.5935  -5.7666  -5.4052  -4.7887  -1.1404  -0.5400
     0.1007   0.8339   1.0051   1.0204

          k = 0.3000 0.0000 0.0000 ( 24162 PWs)   bands (ev):

   -21.4150 -20.5844 -19.3191 -19.0509 -18.3798 -17.5170 -17.1673 -14.9799
   -14.8110 -13.1979 -12.8946 -12.6658 -11.4168 -10.7086 -10.5358 -10.3646
    -9.6187  -9.4090  -8.9947  -8.7269  -8.4757  -8.4603  -7.9305  -7.5987
    -7.0738  -7.0517  -6.7899  -5.9626  -5.3895  -4.9408  -1.0162  -0.6249
     0.3319   0.9448   1.1300   1.2898

          k = 0.3250 0.0000 0.0000 ( 24198 PWs)   bands (ev):

   -21.3253 -20.4979 -19.4002 -19.0794 -18.5529 -17.4708 -17.3140 -14.9460
   -14.9266 -13.0671 -12.9792 -12.4266 -11.2387 -10.6331 -10.4986 -10.2720
    -9.4839  -9.3028  -8.9145  -8.8178  -8.5268  -8.3733  -8.0535  -7.7964
    -7.2040  -7.0715  -6.8889  -6.1610  -5.3677  -5.0928  -0.8880  -0.7055
     0.5624   1.0650   1.2489   1.2629

          k = 0.3500 0.0000 0.0000 ( 24196 PWs)   bands (ev):

   -21.2286 -20.4051 -19.5536 -19.0244 -18.7234 -17.4595 -17.4211 -15.0716
   -14.8671 -13.1075 -12.9440 -12.1380 -11.1243 -10.6540 -10.3072 -10.1649
    -9.3624  -9.1885  -8.9582  -8.8290  -8.5669  -8.2632  -8.1939  -7.9975
    -7.3357  -7.2445  -6.8246  -6.3568  -5.3450  -5.2438  -0.7795  -0.7559
     0.7914   1.1072   1.1943   1.3767

          k = 0.3750 0.0000 0.0000 ( 24184 PWs)   bands (ev):

   -21.1250 -20.3064 -19.7203 -18.9454 -18.8892 -17.6017 -17.3713 -15.1854
   -14.8039 -13.2334 -12.8287 -11.8453 -11.1314 -10.5409 -10.1627 -10.0218
    -9.2575  -9.1175  -9.0661  -8.7390  -8.6088  -8.3490  -8.1969  -8.1457
    -7.4675  -7.4370  -6.7304  -6.5481  -5.3928  -5.3236  -0.8453  -0.6202
     0.9459   1.0185   1.3326   1.5133

          k = 0.4000 0.0000 0.0000 ( 24218 PWs)   bands (ev):

   -21.0145 -20.2026 -19.8863 -19.0487 -18.8577 -17.7385 -17.3244 -15.2847
   -14.7400 -13.3497 -12.7226 -11.5548 -11.2072 -10.3464 -10.0714  -9.8501
    -9.2768  -9.1743  -8.9358  -8.6628  -8.6478  -8.5119  -8.3885  -8.0211
    -7.6280  -7.5975  -6.7337  -6.6273  -5.5386  -5.3045  -0.9012  -0.4812
     0.7837   1.2435   1.4796   1.6582

          k = 0.4250 0.0000 0.0000 ( 24234 PWs)   bands (ev):

   -20.8973 -20.0951 -20.0479 -19.1999 -18.7672 -17.8666 -17.2833 -15.3666
   -14.6796 -13.4512 -12.6288 -11.2953 -11.2702 -10.1252 -10.0313  -9.6834
    -9.4082  -9.1242  -8.7977  -8.7303  -8.6876  -8.5646  -8.5409  -7.8901
    -7.8143  -7.7231  -6.9125  -6.5192  -5.6796  -5.2888  -0.9461  -0.3394
     0.6229   1.4661   1.6348   1.8102

          k = 0.4500 0.0000 0.0000 ( 24214 PWs)   bands (ev):

   -20.7738 -20.2037 -19.9875 -19.3388 -18.6804 -17.9800 -17.2510 -15.4280
   -14.6281 -13.5321 -12.5523 -11.3728 -10.9961 -10.0779  -9.8967  -9.5559
    -9.4524  -9.1399  -8.8160  -8.8071  -8.7151  -8.6521  -8.4483  -7.9948
    -7.8395  -7.7545  -7.0825  -6.4099  -5.8124  -5.2771  -0.9790  -0.1968
     0.4660   1.6857   1.7971   1.9677

          k = 0.4750 0.0000 0.0000 ( 24206 PWs)   bands (ev):

   -20.6453 -20.3516 -19.8917 -19.4535 -18.6104 -18.0660 -17.2303 -15.4662
   -14.5927 -13.5852 -12.5010 -11.4263 -10.7439 -10.2157  -9.6701  -9.5133
    -9.3787  -9.2623  -8.8776  -8.8691  -8.8249  -8.4995  -8.3666  -8.1685
    -7.9344  -7.6212  -7.2364  -6.3094  -5.9269  -5.2698  -0.9990  -0.0603
     0.3208   1.8987   1.9618   2.1241

          k =-0.5000 0.0000 0.0000 ( 24218 PWs)   bands (ev):

   -20.5421 -20.4613 -19.8458 -19.5057 -18.5814 -18.1003 -17.2231 -15.4792
   -14.5800 -13.6039 -12.4827 -11.4455 -10.5905 -10.3364  -9.4993  -9.4579
    -9.4489  -9.3340  -8.9088  -8.8775  -8.8685  -8.3588  -8.3294  -8.3162
    -7.9760  -7.5404  -7.3241  -6.2582  -5.9828  -5.2674  -1.0057   0.0205
     0.2371   2.0503   2.0759   2.2111

     the Fermi energy is    -2.2311 ev

!    total energy              =    -165.49950866 Ry
     estimated scf accuracy    <          8.7E-10 Ry
     smearing contrib. (-TS)   =      -0.00000000 Ry
     internal energy E=F+TS    =    -165.49950866 Ry

     The total energy is F=E-TS. E is the sum of the following terms:
     one-electron contribution =   -1270.40401156 Ry
     hartree contribution      =     643.33295662 Ry
     xc contribution           =     -53.57955364 Ry
     ewald contribution        =     515.15109991 Ry

     convergence has been achieved in  13 iterations

     Writing all to output data dir ./7agnr_1uc.save/
 
     init_run     :      5.90s CPU      6.60s WALL (       1 calls)
     electrons    :    140.99s CPU    152.28s WALL (       1 calls)

     Called by init_run:
     wfcinit      :      4.65s CPU      5.09s WALL (       1 calls)
     potinit      :      0.56s CPU      0.68s WALL (       1 calls)
     hinit0       :      0.39s CPU      0.44s WALL (       1 calls)

     Called by electrons:
     c_bands      :    115.50s CPU    123.02s WALL (      13 calls)
     sum_band     :     19.11s CPU     21.44s WALL (      13 calls)
     v_of_rho     :      4.23s CPU      4.96s WALL (      14 calls)
     newd         :      1.57s CPU      2.19s WALL (      14 calls)
     mix_rho      :      0.57s CPU      0.64s WALL (      13 calls)

     Called by c_bands:
     init_us_2    :      1.58s CPU      1.60s WALL (     297 calls)
     init_us_2:cp :      1.58s CPU      1.59s WALL (     297 calls)
     cegterg      :    106.08s CPU    113.25s WALL (     143 calls)

     Called by *egterg:
     cdiaghg      :      0.93s CPU      0.96s WALL (     700 calls)
     h_psi        :     82.63s CPU     89.99s WALL (     711 calls)
     s_psi        :      7.65s CPU      7.67s WALL (     711 calls)
     g_psi        :      0.19s CPU      0.19s WALL (     557 calls)

     Called by h_psi:
     h_psi:calbec :      5.86s CPU      5.97s WALL (     711 calls)
     vloc_psi     :     68.33s CPU     75.52s WALL (     711 calls)
     add_vuspsi   :      7.79s CPU      7.82s WALL (     711 calls)

     General routines
     calbec       :      7.68s CPU      7.81s WALL (     854 calls)
     fft          :      2.83s CPU      3.58s WALL (     180 calls)
     ffts         :      0.11s CPU      0.14s WALL (      27 calls)
     fftw         :     73.40s CPU     81.32s WALL (   33670 calls)
     interpolate  :      0.33s CPU      0.40s WALL (      14 calls)
 
     Parallel routines
 
     PWSCF        :   2m27.04s CPU   2m39.55s WALL

 
   This run was terminated on:  10:45:44  17Mar2023            

=------------------------------------------------------------------------------=
   JOB DONE.
=------------------------------------------------------------------------------=
