 DBCSR| CPU Multiplication driver                                            SMM
 DBCSR| Multrec recursion limit                                              512
 DBCSR| Multiplication stack size                                          30000
 DBCSR| Maximum elements for images                                    UNLIMITED
 DBCSR| Multiplicative factor virtual images                                   1
 DBCSR| Use multiplication densification                                       F
 DBCSR| Multiplication size stacks                                             3
 DBCSR| Number of 3D layers                                               SINGLE
 DBCSR| Use MPI memory allocation                                              T
 DBCSR| Use RMA algorithm                                                      F
 DBCSR| Use Communication thread                                               T
 DBCSR| Communication thread load                                             87
 DBCSR| ACC: Number of devices/node                                            1
 DBCSR| ACC: Number of priority stack-buffers                                 40
 DBCSR| ACC: Number of posterior stack-buffers                                80
 DBCSR| ACC: Number of priority streams                                        4
 DBCSR| ACC: Number of posterior streams                                       4
 DBCSR| ACC: Avoid driver after busy                                           F
 DBCSR| ACC: Process inhomogeneous stacks                                      T
 DBCSR| ACC: Min. flop for processing                                          0
 DBCSR| ACC: Min. flop for sorting                                          4000
 DBCSR| ACC: Number of binning bins                                         4096
 DBCSR| ACC: Size of binning bins                                             16


  **** **** ******  **  PROGRAM STARTED AT               2021-04-20 13:08:45.656
 ***** ** ***  *** **   PROGRAM STARTED ON                              nid03693
 **    ****   ******    PROGRAM STARTED BY                               ramador
 ***** **    ** ** **   PROGRAM PROCESS ID                                 18306
  **** **  *******  **  PROGRAM STARTED IN /scratch/snx3000/ramador/exercise_8/B
                                           3LYP/DZVP

 CP2K| version string:                                          CP2K version 7.1
 CP2K| source code revision number:                                  git:e635599
 CP2K| cp2kflags: omp libint fftw3 libxc elpa parallel mpi3 scalapack acc smm_dn
 CP2K|            n smm dbcsr_acc max_contr=4
 CP2K| is freely available from                            https://www.cp2k.org/
 CP2K| Program compiled at                          Wed Mar 17 13:03:11 CET 2021
 CP2K| Program compiled on                                              daint101
 CP2K| Program compiled for                                CP2K-7.1-CrayGNU-cuda
 CP2K| Data directory path    /apps/daint/UES/jenkins/7.0.UP02-20.11/gpu/easybui
 CP2K| Input file name                                                    ts.inp

 GLOBAL| Force Environment number                                              1
 GLOBAL| Basis set file name                                        BASIS_MOLOPT
 GLOBAL| Potential file name                                      GTH_POTENTIALS
 GLOBAL| MM Potential file name                                     MM_POTENTIAL
 GLOBAL| Coordinate file name                                             ts.xyz
 GLOBAL| Method name                                                        CP2K
 GLOBAL| Project name                                                         ts
 GLOBAL| Preferred FFT library                                             FFTW3
 GLOBAL| Preferred diagonalization lib.                                     ELPA
 GLOBAL| Run type                                                         ENERGY
 GLOBAL| All-to-all communication in single precision                          F
 GLOBAL| FFTs using library dependent lengths                                  F
 GLOBAL| Global print level                                                  LOW
 GLOBAL| MPI I/O enabled                                                       T
 GLOBAL| Total number of message passing processes                             1
 GLOBAL| Number of threads for this process                                    1
 GLOBAL| This output is from process                                           0
 GLOBAL| CPU model name                Intel(R) Xeon(R) CPU E5-2690 v3 @ 2.60GHz
 GLOBAL| CPUID                                                              1002

 MEMORY| system memory details [Kb]
 MEMORY|                        rank 0           min           max       average
 MEMORY| MemTotal             65842332      65842332      65842332      65842332
 MEMORY| MemFree              60937444      60937444      60937444      60937444
 MEMORY| Buffers                  8860          8860          8860          8860
 MEMORY| Cached                2383348       2383348       2383348       2383348
 MEMORY| Slab                   451308        451308        451308        451308
 MEMORY| SReclaimable            54248         54248         54248         54248
 MEMORY| MemLikelyFree        63383900      63383900      63383900      63383900


 GENERATE|  Preliminary Number of Bonds generated:                             0
 GENERATE|  Achieved consistency in connectivity generation.

 *******************************************************************************
 *******************************************************************************
 **                                                                           **
 **     #####                         ##              ##                      **
 **    ##   ##            ##          ##              ##                      **
 **   ##     ##                       ##            ######                    **
 **   ##     ##  ##   ##  ##   #####  ##  ##   ####   ##    #####    #####    **
 **   ##     ##  ##   ##  ##  ##      ## ##   ##      ##   ##   ##  ##   ##   **
 **   ##  ## ##  ##   ##  ##  ##      ####     ###    ##   ######   ######    **
 **    ##  ###   ##   ##  ##  ##      ## ##      ##   ##   ##       ##        **
 **     #######   #####   ##   #####  ##  ##  ####    ##    #####   ##        **
 **           ##                                                    ##        **
 **                                                                           **
 **                                                ... make the atoms dance   **
 **                                                                           **
 **            Copyright (C) by CP2K developers group (2000 - 2019)           **
 **                                                                           **
 *******************************************************************************


 TOTAL NUMBERS AND MAXIMUM NUMBERS

  Total number of            - Atomic kinds:                                   3
                             - Atoms:                                          9
                             - Shell sets:                                     9
                             - Shells:                                        33
                             - Primitive Cartesian functions:                 63
                             - Cartesian basis functions:                     72
                             - Spherical basis functions:                     69

  Maximum angular momentum of- Orbital basis functions:                        2
                             - Local part of the GTH pseudopotential:          2
                             - Non-local part of the GTH pseudopotential:      0


 SCF PARAMETERS         Density guess:                                   RESTART
                        --------------------------------------------------------
                        max_scf:                                              50
                        max_scf_history:                                       0
                        max_diis:                                              4
                        --------------------------------------------------------
                        eps_scf:                                        1.00E-04
                        eps_scf_history:                                0.00E+00
                        eps_diis:                                       1.00E-01
                        eps_eigval:                                     1.00E-05
                        --------------------------------------------------------
                        level_shift [a.u.]:                                 0.00
                        --------------------------------------------------------
                        Outer loop SCF in use 
                        No variables optimised in outer loop
                        eps_scf                                         1.00E-04
                        max_scf                                              500
                        No outer loop optimization
                        step_size                                       5.00E-01

 PW_GRID| Information for grid number                                          1
 PW_GRID| Cutoff [a.u.]                                                    200.0
 PW_GRID| spherical cutoff:                                                   NO
 PW_GRID|   Bounds   1            -96      95                Points:         192
 PW_GRID|   Bounds   2            -96      95                Points:         192
 PW_GRID|   Bounds   3            -96      95                Points:         192
 PW_GRID| Volume element (a.u.^3)  0.3218E-02     Volume (a.u.^3)     22775.6292
 PW_GRID| Grid span                                                    FULLSPACE

 PW_GRID| Information for grid number                                          2
 PW_GRID| Number of the reference grid                                         1
 PW_GRID| Cutoff [a.u.]                                                     66.7
 PW_GRID| spherical cutoff:                                                   NO
 PW_GRID|   Bounds   1            -54      53                Points:         108
 PW_GRID|   Bounds   2            -54      53                Points:         108
 PW_GRID|   Bounds   3            -54      53                Points:         108
 PW_GRID| Volume element (a.u.^3)  0.1808E-01     Volume (a.u.^3)     22775.6292
 PW_GRID| Grid span                                                    FULLSPACE

 PW_GRID| Information for grid number                                          3
 PW_GRID| Number of the reference grid                                         1
 PW_GRID| Cutoff [a.u.]                                                     22.2
 PW_GRID| spherical cutoff:                                                   NO
 PW_GRID|   Bounds   1            -32      31                Points:          64
 PW_GRID|   Bounds   2            -32      31                Points:          64
 PW_GRID|   Bounds   3            -32      31                Points:          64
 PW_GRID| Volume element (a.u.^3)  0.8688E-01     Volume (a.u.^3)     22775.6292
 PW_GRID| Grid span                                                    FULLSPACE

 PW_GRID| Information for grid number                                          4
 PW_GRID| Number of the reference grid                                         1
 PW_GRID| Cutoff [a.u.]                                                      7.4
 PW_GRID| spherical cutoff:                                                   NO
 PW_GRID|   Bounds   1            -18      17                Points:          36
 PW_GRID|   Bounds   2            -18      17                Points:          36
 PW_GRID|   Bounds   3            -18      17                Points:          36
 PW_GRID| Volume element (a.u.^3)  0.4882         Volume (a.u.^3)     22775.6292
 PW_GRID| Grid span                                                    FULLSPACE

 POISSON| Solver                                                         WAVELET
 POISSON| Wavelet| Scaling function                                           40
 POISSON| Periodicity                                                       NONE

 RS_GRID| Information for grid number                                          1
 RS_GRID|   Bounds   1            -96      95                Points:         192
 RS_GRID|   Bounds   2            -96      95                Points:         192
 RS_GRID|   Bounds   3            -96      95                Points:         192

 RS_GRID| Information for grid number                                          2
 RS_GRID|   Bounds   1            -54      53                Points:         108
 RS_GRID|   Bounds   2            -54      53                Points:         108
 RS_GRID|   Bounds   3            -54      53                Points:         108

 RS_GRID| Information for grid number                                          3
 RS_GRID|   Bounds   1            -32      31                Points:          64
 RS_GRID|   Bounds   2            -32      31                Points:          64
 RS_GRID|   Bounds   3            -32      31                Points:          64

 RS_GRID| Information for grid number                                          4
 RS_GRID|   Bounds   1            -18      17                Points:          36
 RS_GRID|   Bounds   2            -18      17                Points:          36
 RS_GRID|   Bounds   3            -18      17                Points:          36

 Number of electrons:                                                         20
 Number of occupied orbitals:                                                 10
 Number of molecular orbitals:                                                10

 Number of orbital functions:                                                 69
 Number of independent orbital functions:                                     69

 Extrapolation method: initial_guess

 *** WARNING in qs_initial_guess.F:280 :: User requested to restart the   ***
 *** wavefunction from the file named: ts-RESTART.wfn. This file does not ***
 *** exist. Please check the existence of the file or change properly the ***
 *** value of the keyword WFN_RESTART_FILE_NAME. Calculation continues    ***
 *** using ATOMIC GUESS.                                                  ***



 SCF WAVEFUNCTION OPTIMIZATION

  ----------------------------------- OT ---------------------------------------
  Minimizer      : DIIS                : direct inversion
                                         in the iterative subspace
                                         using   7 DIIS vectors
                                         safer DIIS on
  Preconditioner : FULL_SINGLE_INVERSE : inversion of 
                                         H + eS - 2*(Sc)(c^T*H*c+const)(Sc)^T
  Precond_solver : DEFAULT
  stepsize       :    0.08000000                  energy_gap     :    0.08000000
  eps_taylor     :   0.10000E-15                  max_taylor     :             4
  ----------------------------------- OT ---------------------------------------

  Step     Update method      Time    Convergence         Total energy    Change
  ------------------------------------------------------------------------------
     1 OT DIIS     0.80E-01   90.5     0.16193843       -28.8770174166 -2.89E+01
     2 OT DIIS     0.80E-01   60.2     0.12042992       -29.9763480025 -1.10E+00
     3 OT DIIS     0.80E-01   60.2     0.08340172       -30.3703231294 -3.94E-01
     4 OT DIIS     0.80E-01   60.2     0.05259252       -30.5271645954 -1.57E-01
     5 OT DIIS     0.80E-01   60.2     0.02984272       -30.5683623520 -4.12E-02
     6 OT DIIS     0.80E-01   60.2     0.02472104       -30.6010117277 -3.26E-02
     7 OT DIIS     0.80E-01   60.2     0.00956055       -30.6111437288 -1.01E-02
     8 OT DIIS     0.80E-01   60.3     0.00463428       -30.6154057667 -4.26E-03
     9 OT DIIS     0.80E-01   60.2     0.00281013       -30.6168469969 -1.44E-03
    10 OT DIIS     0.80E-01   60.2     0.00176648       -30.6174032272 -5.56E-04
    11 OT DIIS     0.80E-01   60.2     0.00105580       -30.6175858474 -1.83E-04
    12 OT DIIS     0.80E-01   60.2     0.00065102       -30.6176899686 -1.04E-04
    13 OT DIIS     0.80E-01   60.2     0.00045279       -30.6177193410 -2.94E-05
    14 OT DIIS     0.80E-01   60.2     0.00025148       -30.6177343042 -1.50E-05
    15 OT DIIS     0.80E-01   60.2     0.00015049       -30.6177394790 -5.17E-06
    16 OT DIIS     0.80E-01   60.2     0.00011205       -30.6177408124 -1.33E-06
    17 OT DIIS     0.80E-01   60.2     0.00006390       -30.6177417176 -9.05E-07

  *** SCF run converged in    17 steps ***


  Electronic density on regular grids:        -19.5883442416        0.4116557584
  Core density on regular grids:               20.0000000000       -0.0000000000
  Hard and soft densities (Lebedev):         -316.4711055923     -316.0594500349
  Total Rho_soft + Rho1_hard - Rho1_soft      -19.9999997990
  Total charge density (r-space):               0.0000002010
  Total Rho_soft + Rho0_soft (g-space):         0.0000001349

  Overlap energy of the core charge distribution:               0.00000136846112
  Self energy of the core charge distribution:                -76.65906668574564
  Core Hamiltonian energy:                                     23.01832523141587
  Hartree energy:                                              45.66969699525352
  Exchange-correlation energy:                                 -6.83949777641150
  Hartree-Fock Exchange energy:                                -1.65983437301623

  GAPW| Exc from hard and soft atomic rho1:                    -0.31205908797701
  GAPW| local Eh = 1 center integrals:                        -13.83530738954833

  Total energy:                                               -30.61774171756820

  outer SCF iter =    1 RMS gradient =   0.64E-04 energy =        -30.6177417176
  outer SCF loop converged in   1 iterations or   17 steps

  
  Eigenvalues of the occupied subspace spin            1
 ---------------------------------------------
      -0.96539516     -0.76459763     -0.59335090     -0.49534628
      -0.46710530     -0.41054218     -0.36261503     -0.34677003
      -0.32100478     -0.21597408
 Fermi Energy [eV] :   -5.876954
  
  Lowest Eigenvalues of the unoccupied subspace spin            1
 -----------------------------------------------------
  Reached convergence in           43  iterations 
      -0.00667317
  
 HOMO - LUMO gap [eV] :    5.695367

 ENERGY| Total FORCE_EVAL ( QS ) energy (a.u.):              -30.617741717568197


 -------------------------------------------------------------------------------
 -                                                                             -
 -                                DBCSR STATISTICS                             -
 -                                                                             -
 -------------------------------------------------------------------------------
 COUNTER                                    TOTAL       BLAS       SMM       ACC
 flops     1 x     1 x     1                  390       0.0%    100.0%      0.0%
 flops    10 x     1 x    10                  400       0.0%    100.0%      0.0%
 flops    10 x     1 x     5                 1200       0.0%    100.0%      0.0%
 flops     5 x     1 x    10                 1200       0.0%    100.0%      0.0%
 flops    10 x     1 x    13                 1560       0.0%    100.0%      0.0%
 flops    13 x     1 x    10                 1560       0.0%    100.0%      0.0%
 flops     1 x     1 x     5                 4980       0.0%    100.0%      0.0%
 flops    11 x     1 x    11                 5324       0.0%    100.0%      0.0%
 flops     1 x     1 x    13                 6474       0.0%    100.0%      0.0%
 flops     5 x     1 x     1                 7800       0.0%    100.0%      0.0%
 flops    13 x     1 x     1                10140       0.0%    100.0%      0.0%
 flops    11 x    11 x     5                14520       0.0%    100.0%      0.0%
 flops    11 x     1 x     5                14520       0.0%    100.0%      0.0%
 flops     5 x     1 x    11                14520       0.0%    100.0%      0.0%
 flops    11 x    11 x    13                18876       0.0%    100.0%      0.0%
 flops    11 x     1 x    13                18876       0.0%    100.0%      0.0%
 flops    13 x     1 x    11                18876       0.0%    100.0%      0.0%
 flops     5 x    11 x     5                39600       0.0%    100.0%      0.0%
 flops    13 x    11 x     5                51480       0.0%    100.0%      0.0%
 flops     5 x    11 x    13                51480       0.0%    100.0%      0.0%
 flops    13 x    11 x    13                66924       0.0%    100.0%      0.0%
 flops     5 x     5 x    10               199500       0.0%      0.0%    100.0%
 flops     5 x     1 x     5               199800       0.0%    100.0%      0.0%
 flops    13 x     5 x    10               222300       0.0%      0.0%    100.0%
 flops     5 x    13 x    10               222300       0.0%      0.0%    100.0%
 flops    13 x     1 x     5               259740       0.0%    100.0%      0.0%
 flops     5 x     1 x    13               259740       0.0%    100.0%      0.0%
 flops    10 x    10 x    10               294000       0.0%      0.0%    100.0%
 flops    13 x     1 x    13               337662       0.0%    100.0%      0.0%
 flops    13 x    13 x    10               385320       0.0%      0.0%    100.0%
 flops    10 x    10 x     5               420000       0.0%      1.4%     98.6%
 flops     5 x    10 x    10               510000       0.0%      0.0%    100.0%
 flops    10 x    10 x    13               546000       0.0%      1.4%     98.6%
 flops    13 x    10 x    10               663000       0.0%      0.0%    100.0%
 flops     5 x    10 x     5              1098000       0.0%      1.6%     98.4%
 flops    13 x    10 x     5              1427400       0.0%      1.6%     98.4%
 flops     5 x    10 x    13              1427400       0.0%      1.6%     98.4%
 flops    13 x    10 x    13              1855620       0.0%      1.6%     98.4%
 flops inhomo. stacks                           0       0.0%      0.0%      0.0%
 flops total                        10.678482E+06       0.0%     14.2%     85.8%
 flops max/rank                     10.678482E+06       0.0%     14.2%     85.8%
 matmuls inhomo. stacks                         0       0.0%      0.0%      0.0%
 matmuls total                              19077       0.0%     62.0%     38.0%
 number of processed stacks                  1974       0.0%     60.9%     39.1%
 average stack size                                     0.0       9.8       9.4
 marketing flops                    11.472594E+06
 -------------------------------------------------------------------------------
 # multiplications                            982
 max memory usage/rank               1.931215E+09
 # max total images/rank                        1
 # max 3D layers                                1
 # MPI messages exchanged                       0
 MPI messages size (bytes):
  total size                         0.000000E+00
  min size                           0.000000E+00
  max size                           0.000000E+00
  average size                       0.000000E+00
 MPI breakdown and total messages size (bytes):
             size <=      128                   0                        0
       128 < size <=     8192                   0                        0
      8192 < size <=    32768                   0                        0
     32768 < size <=   131072                   0                        0
    131072 < size <=  4194304                   0                        0
   4194304 < size <= 16777216                   0                        0
  16777216 < size                               0                        0
 -------------------------------------------------------------------------------
 -                                                                             -
 -                      DBCSR MESSAGE PASSING PERFORMANCE                      -
 -                                                                             -
 -------------------------------------------------------------------------------
 ROUTINE             CALLS      AVE VOLUME [Bytes]
 MP_Group               90
 MP_Bcast               39                     12.
 MP_Allreduce         3390                      8.
 MP_Alltoall          3914                    475.
 MP_Wait             23568
 MP_ISend             3912                    229.
 MP_IRecv             3912                    229.
 MP_Memory           25692
 -------------------------------------------------------------------------------

 MEMORY| Estimated peak process memory [MiB]                                1842

 -------------------------------------------------------------------------------
 ----                             MULTIGRID INFO                            ----
 -------------------------------------------------------------------------------
 count for grid        1:          15133          cutoff [a.u.]          200.00
 count for grid        2:           8434          cutoff [a.u.]           66.67
 count for grid        3:           6665          cutoff [a.u.]           22.22
 count for grid        4:           4895          cutoff [a.u.]            7.41
 total gridlevel count  :          35127

 -------------------------------------------------------------------------------
 -                                                                             -
 -                         MESSAGE PASSING PERFORMANCE                         -
 -                                                                             -
 -------------------------------------------------------------------------------

 ROUTINE             CALLS      AVE VOLUME [Bytes]
 MP_Group                4
 MP_Bcast             1082                   4748.
 MP_Allreduce         2362                   2140.
 MP_Sync             18521
 MP_Alltoall            34              113246208.
 -------------------------------------------------------------------------------


 -------------------------------------------------------------------------------
 -                                                                             -
 -                           R E F E R E N C E S                               -
 -                                                                             -
 -------------------------------------------------------------------------------
 
 CP2K version 7.1, the CP2K developers group (2019).
 CP2K is freely available from https://www.cp2k.org/ .

 Schuett, Ole; Messmer, Peter; Hutter, Juerg; VandeVondele, Joost. 
 Electronic Structure Calculations on Graphics Processing Units, John
 Wiley & Sons, Ltd, 173-190 (2016). 
 GPU-Accelerated Sparse Matrix-Matrix Multiplication for
 Linear Scaling Density Functional Theory.
 https://dx.doi.org/10.1002/9781118670712.ch8

 Borstnik, U; VandeVondele, J; Weber, V; Hutter, J. 
 PARALLEL COMPUTING, 40 (5-6), 47-58 (2014). 
 Sparse matrix multiplication: The distributed block-compressed sparse
 row library.
 https://dx.doi.org/10.1016/j.parco.2014.03.012

 Hutter, J; Iannuzzi, M; Schiffmann, F; VandeVondele, J. 
 WIREs Comput Mol Sci., 4 (1), 15-25 (2014). 
 CP2K: atomistic simulations of condensed matter systems.
 https://dx.doi.org/10.1002/wcms.1159

 Marek, A; Blum, V; Johanni, R; Havu, V; Lang, B; Auckenthaler, T;
 Heinecke, A; Bungartz, H; Lederer, H. 
 Journal of Physics: Condensed Matter, 26 (21), (2014). 
 The ELPA library: scalable parallel eigenvalue solutions for
 electronic structure
 theory and computational science.
 https://dx.doi.org/10.1088/0953-8984/26/21/213201

 Guidon, M; Hutter, J; VandeVondele, J. 
 JOURNAL OF CHEMICAL THEORY AND COMPUTATION, 5 (11), 3010-3021 (2009). 
 Robust Periodic Hartree-Fock Exchange for Large-Scale Simulations Using
 Gaussian Basis Sets.
 https://dx.doi.org/10.1021/ct900494g

 Guidon, M; Schiffmann, F; Hutter, J; VandeVondele, J. 
 JOURNAL OF CHEMICAL PHYSICS, 128 (21), 214104 (2008). 
 Ab initio molecular dynamics using hybrid density functionals.
 https://dx.doi.org/10.1063/1.2931945

 VandeVondele, J; Hutter, J. 
 JOURNAL OF CHEMICAL PHYSICS, 127 (11), 114105 (2007). 
 Gaussian basis sets for accurate calculations on molecular systems in
 gas and condensed phases.
 https://dx.doi.org/10.1063/1.2770708

 Genovese, L; Deutsch, T; Goedecker, S. 
 JOURNAL OF CHEMICAL PHYSICS, 127 (5), 054704 (2007). 
 Efficient and accurate three-dimensional Poisson solver for surface
 problems.
 https://dx.doi.org/10.1063/1.2754685

 Genovese, L; Deutsch, T; Neelov, A; Goedecker, S; Beylkin, G. 
 JOURNAL OF CHEMICAL PHYSICS, 125 (7), 074105 (2006). 
 Efficient solution of Poisson's equation with free boundary conditions.
 https://dx.doi.org/10.1063/1.2335442

 Krack, M. 
 THEORETICAL CHEMISTRY ACCOUNTS, 114 (1-3), 145-152 (2005). 
 Pseudopotentials for H to Kr optimized for gradient-corrected
 exchange-correlation functionals.
 https://dx.doi.org/10.1007/s00214-005-0655-y

 Frigo, M; Johnson, SG. 
 PROCEEDINGS OF THE IEEE, 93 (2), 216-231 (2005). 
 The design and implementation of FFTW3.
 https://dx.doi.org/10.1109/JPROC.2004.840301

 VandeVondele, J; Hutter, J. 
 JOURNAL OF CHEMICAL PHYSICS, 118 (10), 4365-4369 (2003). 
 An efficient orbital transformation method for electronic structure
 calculations.
 https://dx.doi.org/10.1063/1.1543154

 Lippert, G; Hutter, J; Parrinello, M. 
 THEORETICAL CHEMISTRY ACCOUNTS, 103 (2), 124-140 (1999). 
 The Gaussian and augmented-plane-wave density functional method for ab
 initio molecular dynamics simulations.
 https://dx.doi.org/10.1007/s002140050523

 Krack, M; Parrinello, M. 
 PHYSICAL CHEMISTRY CHEMICAL PHYSICS, 2 (10), 2105-2112 (2000). 
 All-electron ab-initio molecular dynamics.
 https://dx.doi.org/10.1039/b001167n

 Hartwigsen, C; Goedecker, S; Hutter, J. 
 PHYSICAL REVIEW B, 58 (7), 3641-3662 (1998). 
 Relativistic separable dual-space Gaussian pseudopotentials from H to Rn.
 https://dx.doi.org/10.1103/PhysRevB.58.3641

 Goedecker, S; Teter, M; Hutter, J. 
 PHYSICAL REVIEW B, 54 (3), 1703-1710 (1996). 
 Separable dual-space Gaussian pseudopotentials.
 https://dx.doi.org/10.1103/PhysRevB.54.1703

 BECKE, AD. PHYSICAL REVIEW A, 38 (6), 3098-3100 (1988). 
 DENSITY-FUNCTIONAL EXCHANGE-ENERGY APPROXIMATION WITH CORRECT
 ASYMPTOTIC-BEHAVIOR.
 https://dx.doi.org/10.1103/PhysRevA.38.3098

 LEE, CT; YANG, WT; PARR, RG. 
 PHYSICAL REVIEW B, 37 (2), 785-789 (1988). 
 DEVELOPMENT OF THE COLLE-SALVETTI CORRELATION-ENERGY FORMULA INTO A
 FUNCTIONAL OF THE ELECTRON-DENSITY.
 https://dx.doi.org/10.1103/PhysRevB.37.785


 -------------------------------------------------------------------------------
 -                                                                             -
 -                                T I M I N G                                  -
 -                                                                             -
 -------------------------------------------------------------------------------
 SUBROUTINE                       CALLS  ASD         SELF TIME        TOTAL TIME
                                MAXIMUM       AVERAGE  MAXIMUM  AVERAGE  MAXIMUM
 CP2K                                 1  1.0    0.056    0.056 1067.756 1067.756
 qs_energies                          1  2.0    0.000    0.000 1065.121 1065.121
 scf_env_do_scf                       1  3.0    0.000    0.000 1055.927 1055.927
 qs_ks_update_qs_env                 18  5.0    0.000    0.000 1036.887 1036.887
 rebuild_ks_matrix                   17  6.0    0.000    0.000 1036.886 1036.886
 qs_ks_build_kohn_sham_matrix        17  7.0    0.002    0.002 1036.886 1036.886
 scf_env_do_scf_inner_loop           17  4.0    0.008    0.008  965.643  965.643
 hfx_ks_matrix                       17  8.0    0.000    0.000  898.748  898.748
 integrate_four_center               17  9.0    0.004    0.004  898.747  898.747
 integrate_four_center_main          17 10.0    0.001    0.001  895.927  895.927
 integrate_four_center_bin           17 11.0  895.926  895.926  895.926  895.926
 pw_transfer                        372  9.5    0.017    0.017   98.054   98.054
 fft_wrap_pw1pw2                    355 10.5    0.003    0.003   97.882   97.882
 fft_wrap_pw1pw2_200                244 11.6    7.061    7.061   95.815   95.815
 init_scf_loop                        1  4.0    0.000    0.000   90.283   90.283
 qs_vxc_create                       17  8.0    0.000    0.000   70.680   70.680
 xc_vxc_pw_create                    17  9.0    1.130    1.130   70.680   70.680
 fft3d_s                            356 12.5   58.389   58.389   58.423   58.423
 pw_poisson_solve                    17  8.0    4.041    4.041   40.794   40.794
 xc_rho_set_and_dset_create          17 10.0    6.566    6.566   40.176   40.176
 -------------------------------------------------------------------------------

 The number of warnings for this run is : 1
 
 -------------------------------------------------------------------------------
  **** **** ******  **  PROGRAM ENDED AT                 2021-04-20 13:26:33.861
 ***** ** ***  *** **   PROGRAM RAN ON                                  nid03693
 **    ****   ******    PROGRAM RAN BY                                   ramador
 ***** **    ** ** **   PROGRAM PROCESS ID                                 18306
  **** **  *******  **  PROGRAM STOPPED IN /scratch/snx3000/ramador/exercise_8/B
                                           3LYP/DZVP
