 DBCSR| CPU Multiplication driver                                            SMM
 DBCSR| Multrec recursion limit                                              512
 DBCSR| Multiplication stack size                                           1000
 DBCSR| Maximum elements for images                                    UNLIMITED
 DBCSR| Multiplicative factor virtual images                                   1
 DBCSR| Use multiplication densification                                       T
 DBCSR| Multiplication size stacks                                             3
 DBCSR| Use memory pool for CPU allocation                                     F
 DBCSR| Number of 3D layers                                               SINGLE
 DBCSR| Use MPI memory allocation                                              F
 DBCSR| Use RMA algorithm                                                      F
 DBCSR| Use Communication thread                                               T
 DBCSR| Communication thread load                                             87
 DBCSR| MPI: My node id                                                        0
 DBCSR| MPI: Number of nodes                                                  24
 DBCSR| OMP: Current number of threads                                         1
 DBCSR| OMP: Max number of threads                                             1
 DBCSR| Split modifier for TAS multiplication algorithm                  1.0E+00


  **** **** ******  **  PROGRAM STARTED AT               2023-04-15 11:59:43.231
 ***** ** ***  *** **   PROGRAM STARTED ON                              nid01929
 **    ****   ******    PROGRAM STARTED BY                               ramador
 ***** **    ** ** **   PROGRAM PROCESS ID                                 30703
  **** **  *******  **  PROGRAM STARTED IN /scratch/snx3000/ramador/MMM_2023/ex7
                                           /ethanol

 CP2K| version string:                                          CP2K version 9.1
 CP2K| source code revision number:                                  git:d8d7100
 CP2K| cp2kflags: omp libint fftw3 libxc elpa parallel mpi3 scalapack smm_dnn sm
 CP2K|            m max_contr=4 plumed2 spglib sirius libvori libbqb
 CP2K| is freely available from                            https://www.cp2k.org/
 CP2K| Program compiled at                          Mon 21 Feb 15:39:03 CET 2022
 CP2K| Program compiled on                                              daint102
 CP2K| Program compiled for                                     CP2K-9.1-CrayGNU
 CP2K| Data directory path    /apps/daint/UES/jenkins/7.0.UP03/21.09/daint-mc/so
 CP2K| Input file name                                               ethanol.inp

 GLOBAL| Force Environment number                                              1
 GLOBAL| Basis set file name                                        BASIS_MOLOPT
 GLOBAL| Potential file name                                      GTH_POTENTIALS
 GLOBAL| MM Potential file name                                     MM_POTENTIAL
 GLOBAL| Coordinate file name                                        ethanol.xyz
 GLOBAL| Method name                                                        CP2K
 GLOBAL| Project name                                                    ethanol
 GLOBAL| Run type                                                        GEO_OPT
 GLOBAL| FFT library                                                       FFTW3
 GLOBAL| Diagonalization library                                            ELPA
 GLOBAL| Minimum number of eigenvectors for ELPA usage                        16
 GLOBAL| Orthonormality check for eigenvectors                          DISABLED
 GLOBAL| Matrix multiplication library                                 ScaLAPACK
 GLOBAL| All-to-all communication in single precision                          F
 GLOBAL| FFTs using library dependent lengths                                  F
 GLOBAL| Grid backend                                                       AUTO
 GLOBAL| Global print level                                                  LOW
 GLOBAL| MPI I/O enabled                                                       T
 GLOBAL| Total number of message passing processes                            24
 GLOBAL| Number of threads for this process                                    1
 GLOBAL| This output is from process                                           0
 GLOBAL| Stack size for threads created by OpenMP (OMP_STACKSIZE)        default
 GLOBAL| CPU model name                Intel(R) Xeon(R) CPU E5-2690 v3 @ 2.60GHz
 GLOBAL| CPUID                                                              1002

 MEMORY| system memory details [Kb]
 MEMORY|                        rank 0           min           max       average
 MEMORY| MemTotal             65740148      65740148      65740148      65740148
 MEMORY| MemFree              60835400      60835400      61004612      60920006
 MEMORY| Buffers                  8656          7276          8656          7966
 MEMORY| Cached                1955436       1866032       1955436       1910734
 MEMORY| Slab                   228112        215556        228112        221834
 MEMORY| SReclaimable            52868         48440         52868         50654
 MEMORY| MemLikelyFree        62852360      62852360      62926360      62889360


 GENERATE|  Preliminary Number of Bonds generated:                             0
 GENERATE|  Achieved consistency in connectivity generation.

 *******************************************************************************
 *******************************************************************************
 **                                                                           **
 **     #####                         ##              ##                      **
 **    ##   ##            ##          ##              ##                      **
 **   ##     ##                       ##            ######                    **
 **   ##     ##  ##   ##  ##   #####  ##  ##   ####   ##    #####    #####    **
 **   ##     ##  ##   ##  ##  ##      ## ##   ##      ##   ##   ##  ##   ##   **
 **   ##  ## ##  ##   ##  ##  ##      ####     ###    ##   ######   ######    **
 **    ##  ###   ##   ##  ##  ##      ## ##      ##   ##   ##       ##        **
 **     #######   #####   ##   #####  ##  ##  ####    ##    #####   ##        **
 **           ##                                                    ##        **
 **                                                                           **
 **                                                ... make the atoms dance   **
 **                                                                           **
 **            Copyright (C) by CP2K developers group (2000-2021)             **
 **                      J. Chem. Phys. 152, 194103 (2020)                    **
 **                                                                           **
 *******************************************************************************


 TOTAL NUMBERS AND MAXIMUM NUMBERS

  Total number of            - Atomic kinds:                                   3
                             - Atoms:                                          9
                             - Shell sets:                                     9
                             - Shells:                                        45
                             - Primitive Cartesian functions:                 63
                             - Cartesian basis functions:                     90
                             - Spherical basis functions:                     87

  Maximum angular momentum of- Orbital basis functions:                        2
                             - Local part of the GTH pseudopotential:          2
                             - Non-local part of the GTH pseudopotential:      0


 SCF PARAMETERS         Density guess:                                   RESTART
                        --------------------------------------------------------
                        max_scf:                                              50
                        max_scf_history:                                       0
                        max_diis:                                              4
                        --------------------------------------------------------
                        eps_scf:                                        1.00E-04
                        eps_scf_history:                                0.00E+00
                        eps_diis:                                       1.00E-01
                        eps_eigval:                                     1.00E-05
                        --------------------------------------------------------
                        level_shift [a.u.]:                                 0.00
                        --------------------------------------------------------
                        Outer loop SCF in use 
                        No variables optimised in outer loop
                        eps_scf                                         1.00E-04
                        max_scf                                              500
                        No outer loop optimization
                        step_size                                       5.00E-01

 PW_GRID| Information for grid number                                          1
 PW_GRID| Grid distributed over                                    24 processors
 PW_GRID| Real space group dimensions                                    24    1
 PW_GRID| the grid is blocked:                                                NO
 PW_GRID| Cutoff [a.u.]                                                    200.0
 PW_GRID| spherical cutoff:                                                   NO
 PW_GRID|   Bounds   1            -96      95                Points:         192
 PW_GRID|   Bounds   2            -96      95                Points:         192
 PW_GRID|   Bounds   3            -96      95                Points:         192
 PW_GRID| Volume element (a.u.^3)  0.3218E-02     Volume (a.u.^3)     22775.6292
 PW_GRID| Grid span                                                    FULLSPACE
 PW_GRID|   Distribution                         Average         Max         Min
 PW_GRID|   G-Vectors                           294912.0      294912      294912
 PW_GRID|   G-Rays                                1536.0        1536        1536
 PW_GRID|   Real Space Points                   294912.0      294912      294912

 PW_GRID| Information for grid number                                          2
 PW_GRID| Number of the reference grid                                         1
 PW_GRID| Grid distributed over                                    24 processors
 PW_GRID| Real space group dimensions                                    24    1
 PW_GRID| the grid is blocked:                                                NO
 PW_GRID| Cutoff [a.u.]                                                     66.7
 PW_GRID| spherical cutoff:                                                   NO
 PW_GRID|   Bounds   1            -54      53                Points:         108
 PW_GRID|   Bounds   2            -54      53                Points:         108
 PW_GRID|   Bounds   3            -54      53                Points:         108
 PW_GRID| Volume element (a.u.^3)  0.1808E-01     Volume (a.u.^3)     22775.6292
 PW_GRID| Grid span                                                    FULLSPACE
 PW_GRID|   Distribution                         Average         Max         Min
 PW_GRID|   G-Vectors                            52488.0       52704       52380
 PW_GRID|   G-Rays                                 486.0         488         485
 PW_GRID|   Real Space Points                    52488.0       58320       46656

 PW_GRID| Information for grid number                                          3
 PW_GRID| Number of the reference grid                                         1
 PW_GRID| Grid distributed over                                    24 processors
 PW_GRID| Real space group dimensions                                    24    1
 PW_GRID| the grid is blocked:                                                NO
 PW_GRID| Cutoff [a.u.]                                                     22.2
 PW_GRID| spherical cutoff:                                                   NO
 PW_GRID|   Bounds   1            -32      31                Points:          64
 PW_GRID|   Bounds   2            -32      31                Points:          64
 PW_GRID|   Bounds   3            -32      31                Points:          64
 PW_GRID| Volume element (a.u.^3)  0.8688E-01     Volume (a.u.^3)     22775.6292
 PW_GRID| Grid span                                                    FULLSPACE
 PW_GRID|   Distribution                         Average         Max         Min
 PW_GRID|   G-Vectors                            10922.7       10944       10880
 PW_GRID|   G-Rays                                 170.7         171         170
 PW_GRID|   Real Space Points                    10922.7       12288        8192

 PW_GRID| Information for grid number                                          4
 PW_GRID| Number of the reference grid                                         1
 PW_GRID| Grid distributed over                                    24 processors
 PW_GRID| Real space group dimensions                                    24    1
 PW_GRID| the grid is blocked:                                                NO
 PW_GRID| Cutoff [a.u.]                                                      7.4
 PW_GRID| spherical cutoff:                                                   NO
 PW_GRID|   Bounds   1            -18      17                Points:          36
 PW_GRID|   Bounds   2            -18      17                Points:          36
 PW_GRID|   Bounds   3            -18      17                Points:          36
 PW_GRID| Volume element (a.u.^3)  0.4882         Volume (a.u.^3)     22775.6292
 PW_GRID| Grid span                                                    FULLSPACE
 PW_GRID|   Distribution                         Average         Max         Min
 PW_GRID|   G-Vectors                             1944.0        2016        1908
 PW_GRID|   G-Rays                                  54.0          56          53
 PW_GRID|   Real Space Points                     1944.0        2592        1296

 POISSON| Solver                                                         WAVELET
 POISSON| Wavelet| Scaling function                                           40
 POISSON| Periodicity                                                       NONE

 RS_GRID| Information for grid number                                          1
 RS_GRID|   Bounds   1            -96      95                Points:         192
 RS_GRID|   Bounds   2            -96      95                Points:         192
 RS_GRID|   Bounds   3            -96      95                Points:         192
 RS_GRID| Real space distribution over                                  4 groups
 RS_GRID| Real space distribution along direction                              2
 RS_GRID| Border size                                                         21
 RS_GRID| Real space distribution over                                  6 groups
 RS_GRID| Real space distribution along direction                              3
 RS_GRID| Border size                                                         21
 RS_GRID|   Distribution                         Average         Max         Min
 RS_GRID|   Planes                                  90.0          90          90
 RS_GRID|   Distribution                         Average         Max         Min
 RS_GRID|   Planes                                  74.0          74          74

 RS_GRID| Information for grid number                                          2
 RS_GRID|   Bounds   1            -54      53                Points:         108
 RS_GRID|   Bounds   2            -54      53                Points:         108
 RS_GRID|   Bounds   3            -54      53                Points:         108
 RS_GRID| Real space distribution over                                  4 groups
 RS_GRID| Real space distribution along direction                              2
 RS_GRID| Border size                                                         22
 RS_GRID| Real space distribution over                                  6 groups
 RS_GRID| Real space distribution along direction                              3
 RS_GRID| Border size                                                         22
 RS_GRID|   Distribution                         Average         Max         Min
 RS_GRID|   Planes                                  71.0          71          71
 RS_GRID|   Distribution                         Average         Max         Min
 RS_GRID|   Planes                                  62.0          62          62

 RS_GRID| Information for grid number                                          3
 RS_GRID|   Bounds   1            -32      31                Points:          64
 RS_GRID|   Bounds   2            -32      31                Points:          64
 RS_GRID|   Bounds   3            -32      31                Points:          64
 RS_GRID| Real space fully replicated
 RS_GRID| Group size                                                           1

 RS_GRID| Information for grid number                                          4
 RS_GRID|   Bounds   1            -18      17                Points:          36
 RS_GRID|   Bounds   2            -18      17                Points:          36
 RS_GRID|   Bounds   3            -18      17                Points:          36
 RS_GRID| Real space fully replicated
 RS_GRID| Group size                                                           1

 BFGS| Use rational function optimization for step estimation:                NO
 BFGS| Use model Hessian for initial guess:                                  YES
 BFGS| Restart Hessian:                                                       NO
 BFGS| Trust radius:                                                       0.472

 *******************************************************************************
 ***                     STARTING GEOMETRY OPTIMIZATION                      ***
 ***                                   BFGS                                  ***
 *******************************************************************************

 Number of electrons:                                                         20
 Number of occupied orbitals:                                                 10
 Number of molecular orbitals:                                                10

 Number of orbital functions:                                                 87
 Number of independent orbital functions:                                     87

 Extrapolation method: initial_guess

 *** WARNING in qs_initial_guess.F:309 :: User requested to restart the    ***
 *** wavefunction from the file named: ethanol-RESTART.wfn. This file does ***
 *** not exist. Please check the existence of the file or change properly  ***
 *** the value of the keyword WFN_RESTART_FILE_NAME. Calculation continues ***
 *** using ATOMIC GUESS.                                                   ***



 SCF WAVEFUNCTION OPTIMIZATION

  ----------------------------------- OT ---------------------------------------
  Minimizer      : DIIS                : direct inversion
                                         in the iterative subspace
                                         using   7 DIIS vectors
                                         safer DIIS on
  Preconditioner : FULL_SINGLE_INVERSE : inversion of 
                                         H + eS - 2*(Sc)(c^T*H*c+const)(Sc)^T
  Precond_solver : DEFAULT
  stepsize       :    0.08000000                  energy_gap     :    0.08000000
  eps_taylor     :   0.10000E-15                  max_taylor     :             4
  ----------------------------------- OT ---------------------------------------

  Step     Update method      Time    Convergence         Total energy    Change
  ------------------------------------------------------------------------------
     1 OT DIIS     0.80E-01    1.6     0.17832475       -28.9958799724 -2.90E+01
     2 OT DIIS     0.80E-01    1.1     0.16260249       -30.0755525299 -1.08E+00
     3 OT DIIS     0.80E-01    1.1     0.07089475       -30.6935223983 -6.18E-01
     4 OT DIIS     0.80E-01    1.1     0.05568410       -30.8548323680 -1.61E-01
     5 OT DIIS     0.80E-01    1.1     0.01909447       -30.9306980529 -7.59E-02
     6 OT DIIS     0.80E-01    1.1     0.00972743       -30.9610017620 -3.03E-02
     7 OT DIIS     0.80E-01    1.1     0.00590107       -30.9676168556 -6.62E-03
     8 OT DIIS     0.80E-01    1.1     0.00322356       -30.9694012194 -1.78E-03
     9 OT DIIS     0.80E-01    1.1     0.00187507       -30.9704876644 -1.09E-03
    10 OT DIIS     0.80E-01    1.1     0.00124953       -30.9708458488 -3.58E-04
    11 OT DIIS     0.80E-01    1.1     0.00071072       -30.9710233736 -1.78E-04
    12 OT DIIS     0.80E-01    1.1     0.00052265       -30.9710667876 -4.34E-05
    13 OT DIIS     0.80E-01    1.1     0.00033766       -30.9710941029 -2.73E-05
    14 OT DIIS     0.80E-01    1.1     0.00018756       -30.9711082884 -1.42E-05
    15 OT DIIS     0.80E-01    1.1     0.00010876       -30.9711131415 -4.85E-06
    16 OT DIIS     0.80E-01    1.1     0.00006501       -30.9711147277 -1.59E-06

  *** SCF run converged in    16 steps ***


  Electronic density on regular grids:        -19.5502508359        0.4497491641
  Core density on regular grids:               20.0000000000       -0.0000000000
  Hard and soft densities (Lebedev):         -395.5111880913     -395.0614393168
  Total Rho_soft + Rho1_hard - Rho1_soft      -19.9999996104
  Total charge density (r-space):               0.0000003896
  Total Rho_soft + Rho0_soft (g-space):         0.0000003228

  Overlap energy of the core charge distribution:               0.00000139242905
  Self energy of the core charge distribution:                -76.65906668574564
  Core Hamiltonian energy:                                     23.32452813431907
  Hartree energy:                                              45.29197204902465
  Exchange-correlation energy:                                 -8.75896262148455

  GAPW| Exc from hard and soft atomic rho1:                    -0.41925146393608
  GAPW| local Eh = 1 center integrals:                        -13.75033553227449

  Total energy:                                               -30.97111472766801

  outer SCF iter =    1 RMS gradient =   0.65E-04 energy =        -30.9711147277
  outer SCF loop converged in   1 iterations or   16 steps

  
  Eigenvalues of the occupied subspace spin            1
 ---------------------------------------------
      -0.93215383     -0.67929107     -0.54967694     -0.46621106
      -0.41389525     -0.35650111     -0.33878932     -0.31915094
      -0.28726126     -0.22498588
 Fermi Energy [eV] :   -6.122177
  
  Lowest Eigenvalues of the unoccupied subspace spin            1
 -----------------------------------------------------
 OT| Eigensolver reached convergence in 55 iterations
       0.02160593
  
 HOMO - LUMO gap [eV] :    6.710105

 ENERGY| Total FORCE_EVAL ( QS ) energy [a.u.]:              -30.971115264774085

 --------  Informations at step =     0 ------------
  Optimization Method        =                 BFGS
  Total Energy               =       -30.9711152648
  Used time                  =               20.848
 ---------------------------------------------------

 --------------------------
 OPTIMIZATION STEP:      1
 --------------------------

 Number of electrons:                                                         20
 Number of occupied orbitals:                                                 10
 Number of molecular orbitals:                                                10

 Number of orbital functions:                                                 87
 Number of independent orbital functions:                                     87

 Extrapolation method: ASPC


 SCF WAVEFUNCTION OPTIMIZATION

  ----------------------------------- OT ---------------------------------------
  Minimizer      : DIIS                : direct inversion
                                         in the iterative subspace
                                         using   7 DIIS vectors
                                         safer DIIS on
  Preconditioner : FULL_SINGLE_INVERSE : inversion of 
                                         H + eS - 2*(Sc)(c^T*H*c+const)(Sc)^T
  Precond_solver : DEFAULT
  stepsize       :    0.08000000                  energy_gap     :    0.08000000
  eps_taylor     :   0.10000E-15                  max_taylor     :             4
  ----------------------------------- OT ---------------------------------------

  Step     Update method      Time    Convergence         Total energy    Change
  ------------------------------------------------------------------------------
     1 OT DIIS     0.80E-01    1.0     0.00105554       -30.9712140009 -3.10E+01
     2 OT DIIS     0.80E-01    1.1     0.00064655       -30.9712756929 -6.17E-05
     3 OT DIIS     0.80E-01    1.1     0.00019069       -30.9713144250 -3.87E-05
     4 OT DIIS     0.80E-01    1.1     0.00005134       -30.9713180232 -3.60E-06

  *** SCF run converged in     4 steps ***


  Electronic density on regular grids:        -19.5537057204        0.4462942796
  Core density on regular grids:               20.0000000000       -0.0000000000
  Hard and soft densities (Lebedev):         -392.5667570209     -392.1204631254
  Total Rho_soft + Rho1_hard - Rho1_soft      -19.9999996159
  Total charge density (r-space):               0.0000003841
  Total Rho_soft + Rho0_soft (g-space):         0.0000003172

  Overlap energy of the core charge distribution:               0.00000124679927
  Self energy of the core charge distribution:                -76.65906668574564
  Core Hamiltonian energy:                                     23.28045282394114
  Hartree energy:                                              45.33232091408322
  Exchange-correlation energy:                                 -8.74954816267155

  GAPW| Exc from hard and soft atomic rho1:                    -0.41585029114663
  GAPW| local Eh = 1 center integrals:                        -13.75962786850499

  Total energy:                                               -30.97131802324519

  outer SCF iter =    1 RMS gradient =   0.51E-04 energy =        -30.9713180232
  outer SCF loop converged in   1 iterations or    4 steps

  
  Eigenvalues of the occupied subspace spin            1
 ---------------------------------------------
      -0.93115963     -0.67828827     -0.54779011     -0.46477145
      -0.41288718     -0.35609460     -0.33785234     -0.31812548
      -0.28974083     -0.22602478
 Fermi Energy [eV] :   -6.150447
  
  Lowest Eigenvalues of the unoccupied subspace spin            1
 -----------------------------------------------------
 OT| Eigensolver reached convergence in 51 iterations
       0.02035740
  
 HOMO - LUMO gap [eV] :    6.704400

 ENERGY| Total FORCE_EVAL ( QS ) energy [a.u.]:              -30.971318254802473

 --------  Informations at step =     1 ------------
  Optimization Method        =                 BFGS
  Total Energy               =       -30.9713182548
  Real energy change         =        -0.0002029900
  Predicted change in energy =        -0.0002090547
  Scaling factor             =         0.0000000000
  Step size                  =         0.0274087734
  Trust radius               =         0.4724315332
  Decrease in energy         =                  YES
  Used time                  =                6.682

  Convergence check :
  Max. step size             =         0.0274087734
  Conv. limit for step size  =         0.0100000000
  Convergence in step size   =                   NO
  RMS step size              =         0.0072977276
  Conv. limit for RMS step   =         0.0030000000
  Convergence in RMS step    =                   NO
  Max. gradient              =         0.0048540158
  Conv. limit for gradients  =         0.0010000000
  Conv. for gradients        =                   NO
  RMS gradient               =         0.0011918756
  Conv. limit for RMS grad.  =         0.0003000000
  Conv. for gradients        =                   NO
 ---------------------------------------------------

 --------------------------
 OPTIMIZATION STEP:      2
 --------------------------

 Number of electrons:                                                         20
 Number of occupied orbitals:                                                 10
 Number of molecular orbitals:                                                10

 Number of orbital functions:                                                 87
 Number of independent orbital functions:                                     87

 Extrapolation method: ASPC


 SCF WAVEFUNCTION OPTIMIZATION

  ----------------------------------- OT ---------------------------------------
  Minimizer      : DIIS                : direct inversion
                                         in the iterative subspace
                                         using   7 DIIS vectors
                                         safer DIIS on
  Preconditioner : FULL_SINGLE_INVERSE : inversion of 
                                         H + eS - 2*(Sc)(c^T*H*c+const)(Sc)^T
  Precond_solver : DEFAULT
  stepsize       :    0.08000000                  energy_gap     :    0.08000000
  eps_taylor     :   0.10000E-15                  max_taylor     :             4
  ----------------------------------- OT ---------------------------------------

  Step     Update method      Time    Convergence         Total energy    Change
  ------------------------------------------------------------------------------
     1 OT DIIS     0.80E-01    1.0     0.00121172       -30.9712147748 -3.10E+01
     2 OT DIIS     0.80E-01    1.1     0.00076805       -30.9712972696 -8.25E-05
     3 OT DIIS     0.80E-01    1.1     0.00021951       -30.9713539632 -5.67E-05
     4 OT DIIS     0.80E-01    1.1     0.00007531       -30.9713583893 -4.43E-06

  *** SCF run converged in     4 steps ***


  Electronic density on regular grids:        -19.5546979828        0.4453020172
  Core density on regular grids:               20.0000000000       -0.0000000000
  Hard and soft densities (Lebedev):         -390.0203372390     -389.5750356006
  Total Rho_soft + Rho1_hard - Rho1_soft      -19.9999996212
  Total charge density (r-space):               0.0000003788
  Total Rho_soft + Rho0_soft (g-space):         0.0000003120

  Overlap energy of the core charge distribution:               0.00000115972317
  Self energy of the core charge distribution:                -76.65906668574564
  Core Hamiltonian energy:                                     23.25568363063746
  Hartree energy:                                              45.35260545728175
  Exchange-correlation energy:                                 -8.74295814200105

  GAPW| Exc from hard and soft atomic rho1:                    -0.41493809681236
  GAPW| local Eh = 1 center integrals:                        -13.76268571240081

  Total energy:                                               -30.97135838931748

  outer SCF iter =    1 RMS gradient =   0.75E-04 energy =        -30.9713583893
  outer SCF loop converged in   1 iterations or    4 steps

  
  Eigenvalues of the occupied subspace spin            1
 ---------------------------------------------
      -0.92871179     -0.67799331     -0.54703021     -0.46323982
      -0.41239852     -0.35531192     -0.33828269     -0.31841970
      -0.28891329     -0.22516079
 Fermi Energy [eV] :   -6.126937
  
  Lowest Eigenvalues of the unoccupied subspace spin            1
 -----------------------------------------------------
 OT| Eigensolver reached convergence in 49 iterations
       0.01986571
  
 HOMO - LUMO gap [eV] :    6.667510

 ENERGY| Total FORCE_EVAL ( QS ) energy [a.u.]:              -30.971358853191248

 --------  Informations at step =     2 ------------
  Optimization Method        =                 BFGS
  Total Energy               =       -30.9713588532
  Real energy change         =        -0.0000405984
  Predicted change in energy =        -0.0000720335
  Scaling factor             =         0.0000000000
  Step size                  =         0.0136420212
  Trust radius               =         0.4724315332
  Decrease in energy         =                  YES
  Used time                  =                6.644

  Convergence check :
  Max. step size             =         0.0136420212
  Conv. limit for step size  =         0.0100000000
  Convergence in step size   =                   NO
  RMS step size              =         0.0058509999
  Conv. limit for RMS step   =         0.0030000000
  Convergence in RMS step    =                   NO
  Max. gradient              =         0.0017116171
  Conv. limit for gradients  =         0.0010000000
  Conv. for gradients        =                   NO
  RMS gradient               =         0.0006513558
  Conv. limit for RMS grad.  =         0.0003000000
  Conv. for gradients        =                   NO
 ---------------------------------------------------

 --------------------------
 OPTIMIZATION STEP:      3
 --------------------------

 Number of electrons:                                                         20
 Number of occupied orbitals:                                                 10
 Number of molecular orbitals:                                                10

 Number of orbital functions:                                                 87
 Number of independent orbital functions:                                     87

 Extrapolation method: ASPC


 SCF WAVEFUNCTION OPTIMIZATION

  ----------------------------------- OT ---------------------------------------
  Minimizer      : DIIS                : direct inversion
                                         in the iterative subspace
                                         using   7 DIIS vectors
                                         safer DIIS on
  Preconditioner : FULL_SINGLE_INVERSE : inversion of 
                                         H + eS - 2*(Sc)(c^T*H*c+const)(Sc)^T
  Precond_solver : DEFAULT
  stepsize       :    0.08000000                  energy_gap     :    0.08000000
  eps_taylor     :   0.10000E-15                  max_taylor     :             4
  ----------------------------------- OT ---------------------------------------

  Step     Update method      Time    Convergence         Total energy    Change
  ------------------------------------------------------------------------------
     1 OT DIIS     0.80E-01    1.0     0.00122722       -30.9712355735 -3.10E+01
     2 OT DIIS     0.80E-01    1.1     0.00074841       -30.9713180216 -8.24E-05
     3 OT DIIS     0.80E-01    1.1     0.00028124       -30.9713670577 -4.90E-05
     4 OT DIIS     0.80E-01    1.1     0.00009335       -30.9713744723 -7.41E-06

  *** SCF run converged in     4 steps ***


  Electronic density on regular grids:        -19.5544139579        0.4455860421
  Core density on regular grids:               20.0000000000       -0.0000000000
  Hard and soft densities (Lebedev):         -390.2446814191     -389.7990957550
  Total Rho_soft + Rho1_hard - Rho1_soft      -19.9999996221
  Total charge density (r-space):               0.0000003779
  Total Rho_soft + Rho0_soft (g-space):         0.0000003115

  Overlap energy of the core charge distribution:               0.00000118329514
  Self energy of the core charge distribution:                -76.65906668574564
  Core Hamiltonian energy:                                     23.26216988801315
  Hartree energy:                                              45.34719287624669
  Exchange-correlation energy:                                 -8.74461409441841

  GAPW| Exc from hard and soft atomic rho1:                    -0.41520333577616
  GAPW| local Eh = 1 center integrals:                        -13.76185430391065

  Total energy:                                               -30.97137447229588

  outer SCF iter =    1 RMS gradient =   0.93E-04 energy =        -30.9713744723
  outer SCF loop converged in   1 iterations or    4 steps

  
  Eigenvalues of the occupied subspace spin            1
 ---------------------------------------------
      -0.92896741     -0.67818153     -0.54734689     -0.46331490
      -0.41261032     -0.35566535     -0.33797539     -0.31823119
      -0.28917490     -0.22538118
 Fermi Energy [eV] :   -6.132934
  
  Lowest Eigenvalues of the unoccupied subspace spin            1
 -----------------------------------------------------
 OT| Eigensolver reached convergence in 49 iterations
       0.02004151
  
 HOMO - LUMO gap [eV] :    6.678291

 ENERGY| Total FORCE_EVAL ( QS ) energy [a.u.]:              -30.971375237787697

 --------  Informations at step =     3 ------------
  Optimization Method        =                 BFGS
  Total Energy               =       -30.9713752378
  Real energy change         =        -0.0000163846
  Predicted change in energy =        -0.0000150553
  Scaling factor             =         0.0000000000
  Step size                  =         0.0047059305
  Trust radius               =         0.4724315332
  Decrease in energy         =                  YES
  Used time                  =                6.671

  Convergence check :
  Max. step size             =         0.0047059305
  Conv. limit for step size  =         0.0100000000
  Convergence in step size   =                  YES
  RMS step size              =         0.0023400269
  Conv. limit for RMS step   =         0.0030000000
  Convergence in RMS step    =                  YES
  Max. gradient              =         0.0008921622
  Conv. limit for gradients  =         0.0010000000
  Conv. in gradients         =                  YES
  RMS gradient               =         0.0002432283
  Conv. limit for RMS grad.  =         0.0003000000
  Conv. in RMS gradients     =                  YES
 ---------------------------------------------------

 *******************************************************************************
 ***                    GEOMETRY OPTIMIZATION COMPLETED                      ***
 *******************************************************************************

                    Reevaluating energy at the minimum

 Number of electrons:                                                         20
 Number of occupied orbitals:                                                 10
 Number of molecular orbitals:                                                10

 Number of orbital functions:                                                 87
 Number of independent orbital functions:                                     87

 Extrapolation method: ASPC


 SCF WAVEFUNCTION OPTIMIZATION

  ----------------------------------- OT ---------------------------------------
  Minimizer      : DIIS                : direct inversion
                                         in the iterative subspace
                                         using   7 DIIS vectors
                                         safer DIIS on
  Preconditioner : FULL_SINGLE_INVERSE : inversion of 
                                         H + eS - 2*(Sc)(c^T*H*c+const)(Sc)^T
  Precond_solver : DEFAULT
  stepsize       :    0.08000000                  energy_gap     :    0.08000000
  eps_taylor     :   0.10000E-15                  max_taylor     :             4
  ----------------------------------- OT ---------------------------------------

  Step     Update method      Time    Convergence         Total energy    Change
  ------------------------------------------------------------------------------
     1 OT DIIS     0.80E-01    1.0     0.00098065       -30.9712902291 -3.10E+01
     2 OT DIIS     0.80E-01    1.1     0.00057892       -30.9713422012 -5.20E-05
     3 OT DIIS     0.80E-01    1.1     0.00021381       -30.9713706029 -2.84E-05
     4 OT DIIS     0.80E-01    1.1     0.00007551       -30.9713747613 -4.16E-06

  *** SCF run converged in     4 steps ***


  Electronic density on regular grids:        -19.5545298460        0.4454701540
  Core density on regular grids:               20.0000000000       -0.0000000000
  Hard and soft densities (Lebedev):         -390.2419601045     -389.7964903283
  Total Rho_soft + Rho1_hard - Rho1_soft      -19.9999996222
  Total charge density (r-space):               0.0000003778
  Total Rho_soft + Rho0_soft (g-space):         0.0000003114

  Overlap energy of the core charge distribution:               0.00000118329514
  Self energy of the core charge distribution:                -76.65906668574564
  Core Hamiltonian energy:                                     23.26102839800836
  Hartree energy:                                              45.34845751876586
  Exchange-correlation energy:                                 -8.74448452723456

  GAPW| Exc from hard and soft atomic rho1:                    -0.41508375996949
  GAPW| local Eh = 1 center integrals:                        -13.76222688843766

  Total energy:                                               -30.97137476131799

  outer SCF iter =    1 RMS gradient =   0.76E-04 energy =        -30.9713747613
  outer SCF loop converged in   1 iterations or    4 steps

  
  Eigenvalues of the occupied subspace spin            1
 ---------------------------------------------
      -0.92903325     -0.67821447     -0.54740394     -0.46336400
      -0.41262949     -0.35571134     -0.33803068     -0.31827324
      -0.28921829     -0.22544081
 Fermi Energy [eV] :   -6.134557
  
  Lowest Eigenvalues of the unoccupied subspace spin            1
 -----------------------------------------------------
 OT| Eigensolver reached convergence in 53 iterations
       0.02001647
  
 HOMO - LUMO gap [eV] :    6.679232

 ENERGY| Total FORCE_EVAL ( QS ) energy [a.u.]:              -30.971374761317989

 -------------------------------------------------------------------------------
 -                                                                             -
 -                                DBCSR STATISTICS                             -
 -                                                                             -
 -------------------------------------------------------------------------------
 COUNTER                                    TOTAL       BLAS       SMM       ACC
 flops    10 x     1 x    10                 2000       0.0%    100.0%      0.0%
 flops    10 x     1 x     6                 7200       0.0%    100.0%      0.0%
 flops    12 x     1 x    10                 7200       0.0%    100.0%      0.0%
 flops    10 x     1 x    17                10200       0.0%    100.0%      0.0%
 flops    51 x     1 x    10                10200       0.0%    100.0%      0.0%
 flops    11 x     1 x    11                31702       0.0%    100.0%      0.0%
 flops     1 x     1 x     6                35928       0.0%    100.0%      0.0%
 flops     6 x    10 x    10                36000       0.0%    100.0%      0.0%
 flops     1 x     1 x    17                50898       0.0%    100.0%      0.0%
 flops    17 x    10 x    10                51000       0.0%    100.0%      0.0%
 flops    23 x     1 x    11                66286       0.0%    100.0%      0.0%
 flops    12 x     1 x    11                69168       0.0%    100.0%      0.0%
 flops    11 x    11 x     6                87120       0.0%    100.0%      0.0%
 flops    11 x     1 x     6               103752       0.0%    100.0%      0.0%
 flops    40 x     1 x    11               115280       0.0%    100.0%      0.0%
 flops    11 x    11 x    17               123420       0.0%    100.0%      0.0%
 flops    11 x     1 x    17               146982       0.0%    100.0%      0.0%
 flops    23 x    11 x     6               182160       0.0%    100.0%      0.0%
 flops    12 x    11 x     6               190080       0.0%    100.0%      0.0%
 flops    23 x     1 x     6               216936       0.0%    100.0%      0.0%
 flops    12 x     1 x     6               226368       0.0%    100.0%      0.0%
 flops    23 x    11 x    17               258060       0.0%    100.0%      0.0%
 flops    12 x    11 x    17               269280       0.0%    100.0%      0.0%
 flops    23 x     1 x    17               307326       0.0%    100.0%      0.0%
 flops    40 x    11 x     6               316800       0.0%    100.0%      0.0%
 flops    12 x     1 x    17               320688       0.0%    100.0%      0.0%
 flops    40 x     1 x     6               377280       0.0%    100.0%      0.0%
 flops    10 x    10 x    10               436000       0.0%    100.0%      0.0%
 flops    40 x    11 x    17               448800       0.0%    100.0%      0.0%
 flops    40 x     1 x    17               534480       0.0%    100.0%      0.0%
 flops    23 x    10 x     6               612720       0.0%    100.0%      0.0%
 flops    12 x    10 x     6               639360       0.0%    100.0%      0.0%
 flops     6 x     6 x    10               695520       0.0%    100.0%      0.0%
 flops    23 x    10 x    10               713000       0.0%    100.0%      0.0%
 flops    12 x    10 x    10               744000       0.0%    100.0%      0.0%
 flops     6 x    17 x    10               844560       0.0%    100.0%      0.0%
 flops    17 x     6 x    10               844560       0.0%    100.0%      0.0%
 flops    23 x    10 x    17               868020       0.0%    100.0%      0.0%
 flops    12 x    10 x    17               905760       0.0%    100.0%      0.0%
 flops    10 x    10 x     6               993600       0.0%    100.0%      0.0%
 flops    40 x    10 x     6              1065600       0.0%    100.0%      0.0%
 flops    40 x    10 x    10              1240000       0.0%    100.0%      0.0%
 flops     6 x     1 x     6              1371168       0.0%    100.0%      0.0%
 flops    10 x    10 x    17              1407600       0.0%    100.0%      0.0%
 flops    40 x    10 x    17              1509600       0.0%    100.0%      0.0%
 flops    17 x    17 x    10              1595280       0.0%    100.0%      0.0%
 flops    17 x     1 x     6              1942488       0.0%    100.0%      0.0%
 flops     6 x     1 x    17              1942488       0.0%    100.0%      0.0%
 flops    17 x     1 x    17              2751858       0.0%    100.0%      0.0%
 flops     6 x    10 x     6              2877120       0.0%    100.0%      0.0%
 flops     6 x    10 x    17              4075920       0.0%    100.0%      0.0%
 flops    17 x    10 x     6              4075920       0.0%    100.0%      0.0%
 flops    17 x    10 x    17              5774220       0.0%    100.0%      0.0%
 flops inhomo. stacks                      137336       0.0%    100.0%      0.0%
 flops total                        44.666292E+06       0.0%    100.0%      0.0%
 flops max/rank                     22.374120E+06       0.0%    100.0%      0.0%
 matmuls inhomo. stacks                      4260       0.0%    100.0%      0.0%
 matmuls total                              73258       0.0%    100.0%      0.0%
 number of processed stacks                 50327       0.0%    100.0%      0.0%
 average stack size                                     0.0       1.5       0.0
 marketing flops                    47.740872E+06
 -------------------------------------------------------------------------------
 # multiplications                           4269
 max memory usage/rank             301.993984E+06
 # max total images/rank                        3
 # max 3D layers                                1
 # MPI messages exchanged                 1946664
 MPI messages size (bytes):
  total size                       287.900032E+06
  min size                           0.000000E+00
  max size                           6.936000E+03
  average size                     147.894058E+00
 MPI breakdown and total messages size (bytes):
             size <=      128             1743135                  3005056
       128 < size <=     8192              203529                284894960
      8192 < size <=    32768                   0                        0
     32768 < size <=   131072                   0                        0
    131072 < size <=  4194304                   0                        0
   4194304 < size <= 16777216                   0                        0
  16777216 < size                               0                        0
 -------------------------------------------------------------------------------

 *** WARNING in dbcsr_mm.F:294 :: Using a non-square number of MPI ranks ***
 *** might lead to poor performance. Used ranks: 24 Suggested: 25 49     ***

 -------------------------------------------------------------------------------
 -                                                                             -
 -                      DBCSR MESSAGE PASSING PERFORMANCE                      -
 -                                                                             -
 -------------------------------------------------------------------------------
 ROUTINE             CALLS      AVE VOLUME [Bytes]
 MP_Bcast               54                     12.
 MP_Allreduce        21268                      8.
 MP_Alltoall         17022                   1360.
 MP_ISend           183526                    241.
 MP_IRecv           182478                    178.
 -------------------------------------------------------------------------------

 -------------------------------------------------------------------------------
 -                                                                             -
 -                                GRID STATISTICS                              -
 -                                                                             -
 -------------------------------------------------------------------------------
 LP    KERNEL             BACKEND                              COUNT     PERCENT
 2     collocate ortho    REF                                  26702      21.15%
 2     integrate ortho    REF                                  22912      18.15%
 3     collocate ortho    REF                                  22163      17.55%
 3     integrate ortho    REF                                  22032      17.45%
 4     integrate ortho    REF                                   8572       6.79%
 2     collocate general  REF                                   7776       6.16%
 4     collocate ortho    REF                                   7141       5.66%
 2     integrate general  REF                                   6912       5.47%
 3     integrate general  REF                                    864       0.68%
 5     integrate ortho    REF                                    772       0.61%
 1     collocate ortho    REF                                    420       0.33%
 -------------------------------------------------------------------------------

 MEMORY| Estimated peak process memory [MiB]                                 289

 -------------------------------------------------------------------------------
 ----                             MULTIGRID INFO                            ----
 -------------------------------------------------------------------------------
 count for grid        1:         682933          cutoff [a.u.]          200.00
 count for grid        2:         369759          cutoff [a.u.]           66.67
 count for grid        3:         293107          cutoff [a.u.]           22.22
 count for grid        4:         213125          cutoff [a.u.]            7.41
 total gridlevel count  :        1558924

 -------------------------------------------------------------------------------
 -                                                                             -
 -                         MESSAGE PASSING PERFORMANCE                         -
 -                                                                             -
 -------------------------------------------------------------------------------

 ROUTINE             CALLS      AVE VOLUME [Bytes]
 MP_Group                4
 MP_Bcast             2959                 190542.
 MP_Allreduce         8034                   1973.
 MP_Sync               454
 MP_Alltoall          1067               10728454.
 MP_ISendRecv         3818                  59520.
 MP_Wait             11445
 MP_comm_split         225
 MP_ISend             6830                 278619.
 MP_IRecv             6830                 278694.
 MP_Recv                35                   1258.
 MP_Write_All           10                 485376.
 -------------------------------------------------------------------------------


 -------------------------------------------------------------------------------
 -                                                                             -
 -                           R E F E R E N C E S                               -
 -                                                                             -
 -------------------------------------------------------------------------------
 
 CP2K version 9.1, the CP2K developers group (2021).
 CP2K is freely available from https://www.cp2k.org/ .

 Kuehne,Thomas D.; Iannuzzi,Marcella; Del Ben,Mauro;
 Rybkin,Vladimir V.; Seewald,Patrick; Stein,Frederick; Laino,Teodoro;
 Khaliullin,Rustam Z.; Schuett,Ole; Schiffmann,Florian; Golze,Dorothea;
 Wilhelm,Jan; Chulkov,Sergey; Bani-Hashemian,Mohammad Hossein;
 Weber,Valery; Borstnik,Urban; Taillefumier,Mathieu;
 Jakobovits,Alice Shoshana; Lazzaro,Alfio; Pabst,Hans; Mueller,Tiziano;
 Schade,Robert; Guidon,Manuel; Andermatt,Samuel; Holmberg,Nico;
 Schenter,Gregory K.; Hehn,Anna; Bussy,Augustin; Belleflamme,Fabian;
 Tabacchi,Gloria; Gloess,Andreas; Lass,Michael; Bethune,Iain;
 Mundy,Christopher J.; Plessl,Christian; Watkins,Matt;
 VandeVondele,Joost; Krack,Matthias; Hutter,Juerg. 
 The Journal of Chemical Physics, 152 (19), (2020). 
 CP2K: An electronic structure and molecular dynamics software package -
 Quickstep: Efficient and accurate electronic structure calculations.
 https://doi.org/10.1063/5.0007045

 Schuett, Ole; Messmer, Peter; Hutter, Juerg; VandeVondele, Joost. 
 Electronic Structure Calculations on Graphics Processing Units, John
 Wiley & Sons, Ltd, 173-190 (2016). 
 GPU-Accelerated Sparse Matrix-Matrix Multiplication for
 Linear Scaling Density Functional Theory.
 https://doi.org/10.1002/9781118670712.ch8

 Borstnik, U; VandeVondele, J; Weber, V; Hutter, J. 
 PARALLEL COMPUTING, 40 (5-6), 47-58 (2014). 
 Sparse matrix multiplication: The distributed block-compressed sparse
 row library.
 https://doi.org/10.1016/j.parco.2014.03.012

 Hutter, J; Iannuzzi, M; Schiffmann, F; VandeVondele, J. 
 WIREs Comput Mol Sci., 4 (1), 15-25 (2014). 
 CP2K: atomistic simulations of condensed matter systems.
 https://doi.org/10.1002/wcms.1159

 Marek, A; Blum, V; Johanni, R; Havu, V; Lang, B; Auckenthaler, T;
 Heinecke, A; Bungartz, H; Lederer, H. 
 Journal of Physics: Condensed Matter, 26 (21), (2014). 
 The ELPA library: scalable parallel eigenvalue solutions for
 electronic structure
 theory and computational science.
 https://doi.org/10.1088/0953-8984/26/21/213201

 VandeVondele, J; Hutter, J. 
 JOURNAL OF CHEMICAL PHYSICS, 127 (11), 114105 (2007). 
 Gaussian basis sets for accurate calculations on molecular systems in
 gas and condensed phases.
 https://doi.org/10.1063/1.2770708

 Genovese, L; Deutsch, T; Goedecker, S. 
 JOURNAL OF CHEMICAL PHYSICS, 127 (5), 054704 (2007). 
 Efficient and accurate three-dimensional Poisson solver for surface
 problems.
 https://doi.org/10.1063/1.2754685

 Kuhne, TD; Krack, M; Mohamed, FR; Parrinello, M. 
 PHYSICAL REVIEW LETTERS, 98 (6), 066401 (2007). 
 Efficient and accurate Car-Parrinello-like approach to
 Born-Oppenheimer molecular dynamics.
 https://doi.org/10.1103/PhysRevLett.98.066401

 Genovese, L; Deutsch, T; Neelov, A; Goedecker, S; Beylkin, G. 
 JOURNAL OF CHEMICAL PHYSICS, 125 (7), 074105 (2006). 
 Efficient solution of Poisson's equation with free boundary conditions.
 https://doi.org/10.1063/1.2335442

 Krack, M. 
 THEORETICAL CHEMISTRY ACCOUNTS, 114 (1-3), 145-152 (2005). 
 Pseudopotentials for H to Kr optimized for gradient-corrected
 exchange-correlation functionals.
 https://doi.org/10.1007/s00214-005-0655-y

 Frigo, M; Johnson, SG. 
 PROCEEDINGS OF THE IEEE, 93 (2), 216-231 (2005). 
 The design and implementation of FFTW3.
 https://doi.org/10.1109/JPROC.2004.840301

 Kolafa, J. 
 JOURNAL OF COMPUTATIONAL CHEMISTRY, 25 (3), 335-342 (2004). 
 Time-reversible always stable predictor-corrector method for
 molecular dynamics of polarizable molecules.
 https://doi.org/10.1002/jcc.10385

 VandeVondele, J; Hutter, J. 
 JOURNAL OF CHEMICAL PHYSICS, 118 (10), 4365-4369 (2003). 
 An efficient orbital transformation method for electronic structure
 calculations.
 https://doi.org/10.1063/1.1543154

 Lippert, G; Hutter, J; Parrinello, M. 
 THEORETICAL CHEMISTRY ACCOUNTS, 103 (2), 124-140 (1999). 
 The Gaussian and augmented-plane-wave density functional method for ab
 initio molecular dynamics simulations.
 https://doi.org/10.1007/s002140050523

 Krack, M; Parrinello, M. 
 PHYSICAL CHEMISTRY CHEMICAL PHYSICS, 2 (10), 2105-2112 (2000). 
 All-electron ab-initio molecular dynamics.
 https://doi.org/10.1039/b001167n

 Hartwigsen, C; Goedecker, S; Hutter, J. 
 PHYSICAL REVIEW B, 58 (7), 3641-3662 (1998). 
 Relativistic separable dual-space Gaussian pseudopotentials from H to Rn.
 https://doi.org/10.1103/PhysRevB.58.3641

 Perdew, JP; Burke, K; Ernzerhof, M. 
 PHYSICAL REVIEW LETTERS, 77 (18), 3865-3868 (1996). 
 Generalized gradient approximation made simple.
 https://doi.org/10.1103/PhysRevLett.77.3865

 Goedecker, S; Teter, M; Hutter, J. 
 PHYSICAL REVIEW B, 54 (3), 1703-1710 (1996). 
 Separable dual-space Gaussian pseudopotentials.
 https://doi.org/10.1103/PhysRevB.54.1703


 -------------------------------------------------------------------------------
 -                                                                             -
 -                                T I M I N G                                  -
 -                                                                             -
 -------------------------------------------------------------------------------
 SUBROUTINE                       CALLS  ASD         SELF TIME        TOTAL TIME
                                MAXIMUM       AVERAGE  MAXIMUM  AVERAGE  MAXIMUM
 CP2K                                 1  1.0    0.015    0.033   46.811   46.812
 cp_geo_opt                           1  2.0    0.000    0.000   46.571   46.572
 geoopt_bfgs                          1  3.0    0.001    0.001   46.570   46.571
 cp_eval_at                           5  4.0    0.000    0.001   46.542   46.542
 qs_energies                          5  5.8    0.000    0.000   42.685   42.685
 qs_forces                            4  5.0    0.000    0.000   40.821   40.821
 scf_env_do_scf                       5  6.8    0.002    0.003   36.404   36.404
 rebuild_ks_matrix                   36  9.6    0.000    0.000   34.647   34.649
 qs_ks_build_kohn_sham_matrix        36 10.6    0.005    0.006   34.647   34.648
 scf_env_do_scf_inner_loop           32  7.9    0.001    0.001   30.975   30.980
 qs_ks_update_qs_env                 37  8.9    0.000    0.000   30.837   30.838
 pw_transfer                        811 13.1    0.050    0.065   23.434   25.151
 fft_wrap_pw1pw2                    775 14.1    0.008    0.010   23.337   25.056
 fft_wrap_pw1pw2_200                526 15.2    2.036    2.100   22.859   24.587
 fft3d_ps                           775 16.1   10.902   11.073   17.584   19.348
 qs_vxc_create                       36 11.6    0.000    0.000   17.135   17.135
 xc_vxc_pw_create                    36 12.6    0.176    0.263   17.135   17.135
 xc_rho_set_and_dset_create          36 13.6    0.092    0.094    9.759   10.483
 pw_poisson_solve                    36 11.6    0.152    0.162    6.783    6.783
 rs_pw_transfer                     404 12.9    0.006    0.007    5.657    5.708
 qs_rho_update_rho                   37  9.0    0.000    0.000    5.643    5.643
 calculate_rho_elec                  37 10.0    0.044    0.048    5.604    5.604
 init_scf_loop                        5  7.8    0.000    0.000    5.419    5.419
 scf_post_calculation_gpw             5  6.8    0.000    0.000    5.412    5.414
 yz_to_x                            404 16.6    1.465    1.541    3.652    5.403
 mp_alltoall_z22v                   775 18.1    3.513    5.334    3.513    5.334
 density_rs2pw                       37 11.0    0.003    0.003    5.002    5.045
 xc_functional_eval                 180 14.1    0.000    0.001    3.883    4.629
 pbe_lda_eval                       180 15.1    3.883    4.628    3.883    4.628
 qs_ks_update_qs_env_forces           4  6.0    0.000    0.000    3.812    3.812
 sum_up_and_integrate                36 11.6    0.048    0.049    3.604    3.605
 integrate_v_rspace                  36 12.6    0.001    0.001    3.556    3.557
 dbcsr_multiply_generic            4269 12.0    0.110    0.116    3.427    3.446
 potential_pw2rs                     36 13.6    0.004    0.005    3.359    3.361
 make_lumo_gpw                        5  7.8    0.000    0.000    3.268    3.270
 ot_eigensolver                       5  8.8    0.002    0.003    3.238    3.238
 prepare_gapw_den                    36 11.6    0.000    0.001    3.141    3.150
 x_to_yz                            371 17.6    1.686    1.704    3.012    3.097
 put_rho0_on_grid                    36 12.6    0.047    0.055    2.823    2.832
 ps_wavelet_solve                    36 12.6    1.798    1.983    2.439    2.452
 rs_pw_transfer_RS2PW_200            83 13.4    1.779    1.828    2.389    2.450
 rs_pw_transfer_PW2RS_200            72 14.6    1.472    1.493    2.340    2.374
 pw_gather_p                        404 15.6    1.865    1.931    1.865    1.931
 ot_mini                            289 10.0    0.001    0.001    1.838    1.845
 pw_scatter_p                       371 16.6    1.792    1.821    1.792    1.821
 mp_alltoall_d54                     36 13.6    0.360    1.700    0.360    1.700
 qs_ot_get_derivative               163 11.2    0.001    0.001    1.666    1.670
 integrate_vhg0_rspace               36 11.6    0.021    0.025    1.441    1.441
 calculate_wavefunction              10  8.8    0.008    0.020    1.429    1.431
 multiply_cannon                   4269 13.0    0.225    0.230    1.358    1.416
 make_m2s                          8538 13.0    0.090    0.094    1.356    1.409
 mp_waitany                        6830 14.9    1.172    1.238    1.172    1.238
 pw_derive                          216 14.1    1.096    1.128    1.096    1.128
 qs_scf_post_occ_cubes                5  7.8    0.014    0.037    1.065    1.085
 qs_scf_post_unocc_cubes              5  7.8    0.012    0.015    1.062    1.064
 qs_ot_get_p                        304 10.0    0.001    0.001    0.964    0.968
 -------------------------------------------------------------------------------

 The number of warnings for this run is : 2
 
 -------------------------------------------------------------------------------
  **** **** ******  **  PROGRAM ENDED AT                 2023-04-15 12:00:30.283
 ***** ** ***  *** **   PROGRAM RAN ON                                  nid01929
 **    ****   ******    PROGRAM RAN BY                                   ramador
 ***** **    ** ** **   PROGRAM PROCESS ID                                 30703
  **** **  *******  **  PROGRAM STOPPED IN /scratch/snx3000/ramador/MMM_2023/ex7
                                           /ethanol
