
     Program PWSCF v.7.1 starts on 17Mar2023 at 10: 7:37 

     This program is part of the open-source Quantum ESPRESSO suite
     for quantum simulation of materials; please cite
         "P. Giannozzi et al., J. Phys.:Condens. Matter 21 395502 (2009);
         "P. Giannozzi et al., J. Phys.:Condens. Matter 29 465901 (2017);
         "P. Giannozzi et al., J. Chem. Phys. 152 154105 (2020);
          URL http://www.quantum-espresso.org", 
     in publications or presentations arising from this work. More details at
     http://www.quantum-espresso.org/quote

     Parallel version (MPI), running on     4 processors

     MPI processes distributed on     1 nodes
     433622 MiB available memory on the printing compute node when the environment starts
 
     Waiting for input...
     Reading input from standard input

     Current dimensions of program PWSCF are:
     Max number of different atomic species (ntypx) = 10
     Max number of k-points (npk) =  40000
     Max angular momentum in pseudopotentials (lmaxx) =  4
     file Si.pbe-mt_fhi.UPF: wavefunction(s)  4f renormalized
 
     K-points division:     npool     =       2
     R & G space division:  proc/nbgrp/npool/nimage =       2
     Subspace diagonalization in iterative solution of the eigenvalue problem:
     a serial algorithm will be used

 
     Parallelization info
     --------------------
     sticks:   dense  smooth     PW     G-vecs:    dense   smooth      PW
     Min        1653    1653    465                63154    63154    9441
     Max        1654    1654    466                63155    63155    9442
     Sum        3307    3307    931               126309   126309   18883
 
     Using Slab Decomposition
 


     bravais-lattice index     =            2
     lattice parameter (alat)  =      28.3459  a.u.
     unit-cell volume          =    5693.9140 (a.u.)^3
     number of atoms/cell      =            2
     number of atomic types    =            1
     number of electrons       =         8.00
     number of Kohn-Sham states=            8
     kinetic-energy cutoff     =      30.0000  Ry
     charge density cutoff     =     120.0000  Ry
     scf convergence threshold =      1.0E-08
     mixing beta               =       0.5000
     number of iterations used =            8  plain     mixing
     Exchange-correlation= PBE
                           (   1   4   3   4   0   0   0)

     celldm(1)=  28.345903  celldm(2)=   0.000000  celldm(3)=   0.000000
     celldm(4)=   0.000000  celldm(5)=   0.000000  celldm(6)=   0.000000

     crystal axes: (cart. coord. in units of alat)
               a(1) = (  -0.500000   0.000000   0.500000 )  
               a(2) = (   0.000000   0.500000   0.500000 )  
               a(3) = (  -0.500000   0.500000   0.000000 )  

     reciprocal axes: (cart. coord. in units 2 pi/alat)
               b(1) = ( -1.000000 -1.000000  1.000000 )  
               b(2) = (  1.000000  1.000000  1.000000 )  
               b(3) = ( -1.000000  1.000000 -1.000000 )  


     PseudoPot. # 1 for Si read from file:
     ./Si.pbe-mt_fhi.UPF
     MD5 check sum: 259057c2adf9952f9ced37ae3d9e311d
     Pseudo is Norm-conserving, Zval =  4.0
     Generated using FHI98PP, converted with fhi2upf.x v.5.0.2
     Using radial grid of  495 points,  3 beta functions with: 
                l(1) =   0
                l(2) =   1
                l(3) =   3

     atomic species   valence    mass     pseudopotential
        Si             4.00    28.08600     Si( 1.00)

     48 Sym. Ops., with inversion, found (24 have fractional translation)


                                    s                        frac. trans.

      isym =  1     identity                                     

 cryst.   s( 1) = (     1          0          0      )
                  (     0          1          0      )
                  (     0          0          1      )

 cart.    s( 1) = (  1.0000000  0.0000000  0.0000000 )
                  (  0.0000000  1.0000000  0.0000000 )
                  (  0.0000000  0.0000000  1.0000000 )


      isym =  2     180 deg rotation - cart. axis [0,0,1]        

 cryst.   s( 2) = (     0          1         -1      )
                  (     1          0         -1      )
                  (     0          0         -1      )

 cart.    s( 2) = ( -1.0000000  0.0000000  0.0000000 )
                  (  0.0000000 -1.0000000  0.0000000 )
                  (  0.0000000  0.0000000  1.0000000 )


      isym =  3     180 deg rotation - cart. axis [0,1,0]        

 cryst.   s( 3) = (    -1          0          0      )
                  (    -1          0          1      )
                  (    -1          1          0      )

 cart.    s( 3) = ( -1.0000000  0.0000000  0.0000000 )
                  (  0.0000000  1.0000000  0.0000000 )
                  (  0.0000000  0.0000000 -1.0000000 )


      isym =  4     180 deg rotation - cart. axis [1,0,0]        

 cryst.   s( 4) = (     0         -1          1      )
                  (     0         -1          0      )
                  (     1         -1          0      )

 cart.    s( 4) = (  1.0000000  0.0000000  0.0000000 )
                  (  0.0000000 -1.0000000  0.0000000 )
                  (  0.0000000  0.0000000 -1.0000000 )


      isym =  5     180 deg rotation - cart. axis [1,1,0]        

 cryst.   s( 5) = (     0         -1          0      )    f =( -0.2500000 )
                  (    -1          0          0      )       ( -0.2500000 )
                  (     0          0         -1      )       ( -0.2500000 )

 cart.    s( 5) = (  0.0000000  1.0000000  0.0000000 )    f =(  0.2500000 )
                  (  1.0000000  0.0000000  0.0000000 )       ( -0.2500000 )
                  (  0.0000000  0.0000000 -1.0000000 )       ( -0.2500000 )


      isym =  6     180 deg rotation - cart. axis [1,-1,0]       

 cryst.   s( 6) = (    -1          0          1      )    f =( -0.2500000 )
                  (     0         -1          1      )       ( -0.2500000 )
                  (     0          0          1      )       ( -0.2500000 )

 cart.    s( 6) = (  0.0000000 -1.0000000  0.0000000 )    f =(  0.2500000 )
                  ( -1.0000000  0.0000000  0.0000000 )       ( -0.2500000 )
                  (  0.0000000  0.0000000 -1.0000000 )       ( -0.2500000 )


      isym =  7      90 deg rotation - cart. axis [0,0,-1]       

 cryst.   s( 7) = (     0          1          0      )    f =( -0.2500000 )
                  (     0          1         -1      )       ( -0.2500000 )
                  (    -1          1          0      )       ( -0.2500000 )

 cart.    s( 7) = (  0.0000000  1.0000000  0.0000000 )    f =(  0.2500000 )
                  ( -1.0000000  0.0000000  0.0000000 )       ( -0.2500000 )
                  (  0.0000000  0.0000000  1.0000000 )       ( -0.2500000 )


      isym =  8      90 deg rotation - cart. axis [0,0,1]        

 cryst.   s( 8) = (     1          0         -1      )    f =( -0.2500000 )
                  (     1          0          0      )       ( -0.2500000 )
                  (     1         -1          0      )       ( -0.2500000 )

 cart.    s( 8) = (  0.0000000 -1.0000000  0.0000000 )    f =(  0.2500000 )
                  (  1.0000000  0.0000000  0.0000000 )       ( -0.2500000 )
                  (  0.0000000  0.0000000  1.0000000 )       ( -0.2500000 )


      isym =  9     180 deg rotation - cart. axis [1,0,1]        

 cryst.   s( 9) = (    -1          0          0      )    f =( -0.2500000 )
                  (     0          0         -1      )       ( -0.2500000 )
                  (     0         -1          0      )       ( -0.2500000 )

 cart.    s( 9) = (  0.0000000  0.0000000  1.0000000 )    f =(  0.2500000 )
                  (  0.0000000 -1.0000000  0.0000000 )       ( -0.2500000 )
                  (  1.0000000  0.0000000  0.0000000 )       ( -0.2500000 )


      isym = 10     180 deg rotation - cart. axis [-1,0,1]       

 cryst.   s(10) = (     1          0          0      )    f =( -0.2500000 )
                  (     1         -1          0      )       ( -0.2500000 )
                  (     1          0         -1      )       ( -0.2500000 )

 cart.    s(10) = (  0.0000000  0.0000000 -1.0000000 )    f =(  0.2500000 )
                  (  0.0000000 -1.0000000  0.0000000 )       ( -0.2500000 )
                  ( -1.0000000  0.0000000  0.0000000 )       ( -0.2500000 )


      isym = 11      90 deg rotation - cart. axis [0,1,0]        

 cryst.   s(11) = (     0          1         -1      )    f =( -0.2500000 )
                  (    -1          1          0      )       ( -0.2500000 )
                  (     0          1          0      )       ( -0.2500000 )

 cart.    s(11) = (  0.0000000  0.0000000  1.0000000 )    f =(  0.2500000 )
                  (  0.0000000  1.0000000  0.0000000 )       ( -0.2500000 )
                  ( -1.0000000  0.0000000  0.0000000 )       ( -0.2500000 )


      isym = 12      90 deg rotation - cart. axis [0,-1,0]       

 cryst.   s(12) = (     0         -1          1      )    f =( -0.2500000 )
                  (     0          0          1      )       ( -0.2500000 )
                  (    -1          0          1      )       ( -0.2500000 )

 cart.    s(12) = (  0.0000000  0.0000000 -1.0000000 )    f =(  0.2500000 )
                  (  0.0000000  1.0000000  0.0000000 )       ( -0.2500000 )
                  (  1.0000000  0.0000000  0.0000000 )       ( -0.2500000 )


      isym = 13     180 deg rotation - cart. axis [0,1,1]        

 cryst.   s(13) = (    -1          1          0      )    f =( -0.2500000 )
                  (     0          1          0      )       ( -0.2500000 )
                  (     0          1         -1      )       ( -0.2500000 )

 cart.    s(13) = ( -1.0000000  0.0000000  0.0000000 )    f =(  0.2500000 )
                  (  0.0000000  0.0000000  1.0000000 )       ( -0.2500000 )
                  (  0.0000000  1.0000000  0.0000000 )       ( -0.2500000 )


      isym = 14     180 deg rotation - cart. axis [0,1,-1]       

 cryst.   s(14) = (     0          0         -1      )    f =( -0.2500000 )
                  (     0         -1          0      )       ( -0.2500000 )
                  (    -1          0          0      )       ( -0.2500000 )

 cart.    s(14) = ( -1.0000000  0.0000000  0.0000000 )    f =(  0.2500000 )
                  (  0.0000000  0.0000000 -1.0000000 )       ( -0.2500000 )
                  (  0.0000000 -1.0000000  0.0000000 )       ( -0.2500000 )


      isym = 15      90 deg rotation - cart. axis [-1,0,0]       

 cryst.   s(15) = (     0          0          1      )    f =( -0.2500000 )
                  (    -1          0          1      )       ( -0.2500000 )
                  (     0         -1          1      )       ( -0.2500000 )

 cart.    s(15) = (  1.0000000  0.0000000  0.0000000 )    f =(  0.2500000 )
                  (  0.0000000  0.0000000  1.0000000 )       ( -0.2500000 )
                  (  0.0000000 -1.0000000  0.0000000 )       ( -0.2500000 )


      isym = 16      90 deg rotation - cart. axis [1,0,0]        

 cryst.   s(16) = (     1         -1          0      )    f =( -0.2500000 )
                  (     1          0         -1      )       ( -0.2500000 )
                  (     1          0          0      )       ( -0.2500000 )

 cart.    s(16) = (  1.0000000  0.0000000  0.0000000 )    f =(  0.2500000 )
                  (  0.0000000  0.0000000 -1.0000000 )       ( -0.2500000 )
                  (  0.0000000  1.0000000  0.0000000 )       ( -0.2500000 )


      isym = 17     120 deg rotation - cart. axis [-1,-1,-1]     

 cryst.   s(17) = (    -1          0          1      )
                  (    -1          1          0      )
                  (    -1          0          0      )

 cart.    s(17) = (  0.0000000  1.0000000  0.0000000 )
                  (  0.0000000  0.0000000  1.0000000 )
                  (  1.0000000  0.0000000  0.0000000 )


      isym = 18     120 deg rotation - cart. axis [-1,1,1]       

 cryst.   s(18) = (     0          1          0      )
                  (     0          0          1      )
                  (     1          0          0      )

 cart.    s(18) = (  0.0000000 -1.0000000  0.0000000 )
                  (  0.0000000  0.0000000  1.0000000 )
                  ( -1.0000000  0.0000000  0.0000000 )


      isym = 19     120 deg rotation - cart. axis [1,1,-1]       

 cryst.   s(19) = (     1          0         -1      )
                  (     0          0         -1      )
                  (     0          1         -1      )

 cart.    s(19) = (  0.0000000  1.0000000  0.0000000 )
                  (  0.0000000  0.0000000 -1.0000000 )
                  ( -1.0000000  0.0000000  0.0000000 )


      isym = 20     120 deg rotation - cart. axis [1,-1,1]       

 cryst.   s(20) = (     0         -1          0      )
                  (     1         -1          0      )
                  (     0         -1          1      )

 cart.    s(20) = (  0.0000000 -1.0000000  0.0000000 )
                  (  0.0000000  0.0000000 -1.0000000 )
                  (  1.0000000  0.0000000  0.0000000 )


      isym = 21     120 deg rotation - cart. axis [1,1,1]        

 cryst.   s(21) = (     0          0         -1      )
                  (     0          1         -1      )
                  (     1          0         -1      )

 cart.    s(21) = (  0.0000000  0.0000000  1.0000000 )
                  (  1.0000000  0.0000000  0.0000000 )
                  (  0.0000000  1.0000000  0.0000000 )


      isym = 22     120 deg rotation - cart. axis [-1,1,-1]      

 cryst.   s(22) = (    -1          1          0      )
                  (    -1          0          0      )
                  (    -1          0          1      )

 cart.    s(22) = (  0.0000000  0.0000000  1.0000000 )
                  ( -1.0000000  0.0000000  0.0000000 )
                  (  0.0000000 -1.0000000  0.0000000 )


      isym = 23     120 deg rotation - cart. axis [1,-1,-1]      

 cryst.   s(23) = (     0          0          1      )
                  (     1          0          0      )
                  (     0          1          0      )

 cart.    s(23) = (  0.0000000  0.0000000 -1.0000000 )
                  ( -1.0000000  0.0000000  0.0000000 )
                  (  0.0000000  1.0000000  0.0000000 )


      isym = 24     120 deg rotation - cart. axis [-1,-1,1]      

 cryst.   s(24) = (     1         -1          0      )
                  (     0         -1          1      )
                  (     0         -1          0      )

 cart.    s(24) = (  0.0000000  0.0000000 -1.0000000 )
                  (  1.0000000  0.0000000  0.0000000 )
                  (  0.0000000 -1.0000000  0.0000000 )


      isym = 25     inversion                                    

 cryst.   s(25) = (    -1          0          0      )    f =( -0.2500000 )
                  (     0         -1          0      )       ( -0.2500000 )
                  (     0          0         -1      )       ( -0.2500000 )

 cart.    s(25) = ( -1.0000000  0.0000000  0.0000000 )    f =(  0.2500000 )
                  (  0.0000000 -1.0000000  0.0000000 )       ( -0.2500000 )
                  (  0.0000000  0.0000000 -1.0000000 )       ( -0.2500000 )


      isym = 26     inv. 180 deg rotation - cart. axis [0,0,1]   

 cryst.   s(26) = (     0         -1          1      )    f =( -0.2500000 )
                  (    -1          0          1      )       ( -0.2500000 )
                  (     0          0          1      )       ( -0.2500000 )

 cart.    s(26) = (  1.0000000  0.0000000  0.0000000 )    f =(  0.2500000 )
                  (  0.0000000  1.0000000  0.0000000 )       ( -0.2500000 )
                  (  0.0000000  0.0000000 -1.0000000 )       ( -0.2500000 )


      isym = 27     inv. 180 deg rotation - cart. axis [0,1,0]   

 cryst.   s(27) = (     1          0          0      )    f =( -0.2500000 )
                  (     1          0         -1      )       ( -0.2500000 )
                  (     1         -1          0      )       ( -0.2500000 )

 cart.    s(27) = (  1.0000000  0.0000000  0.0000000 )    f =(  0.2500000 )
                  (  0.0000000 -1.0000000  0.0000000 )       ( -0.2500000 )
                  (  0.0000000  0.0000000  1.0000000 )       ( -0.2500000 )


      isym = 28     inv. 180 deg rotation - cart. axis [1,0,0]   

 cryst.   s(28) = (     0          1         -1      )    f =( -0.2500000 )
                  (     0          1          0      )       ( -0.2500000 )
                  (    -1          1          0      )       ( -0.2500000 )

 cart.    s(28) = ( -1.0000000  0.0000000  0.0000000 )    f =(  0.2500000 )
                  (  0.0000000  1.0000000  0.0000000 )       ( -0.2500000 )
                  (  0.0000000  0.0000000  1.0000000 )       ( -0.2500000 )


      isym = 29     inv. 180 deg rotation - cart. axis [1,1,0]   

 cryst.   s(29) = (     0          1          0      )
                  (     1          0          0      )
                  (     0          0          1      )

 cart.    s(29) = (  0.0000000 -1.0000000  0.0000000 )
                  ( -1.0000000  0.0000000  0.0000000 )
                  (  0.0000000  0.0000000  1.0000000 )


      isym = 30     inv. 180 deg rotation - cart. axis [1,-1,0]  

 cryst.   s(30) = (     1          0         -1      )
                  (     0          1         -1      )
                  (     0          0         -1      )

 cart.    s(30) = (  0.0000000  1.0000000  0.0000000 )
                  (  1.0000000  0.0000000  0.0000000 )
                  (  0.0000000  0.0000000  1.0000000 )


      isym = 31     inv.  90 deg rotation - cart. axis [0,0,-1]  

 cryst.   s(31) = (     0         -1          0      )
                  (     0         -1          1      )
                  (     1         -1          0      )

 cart.    s(31) = (  0.0000000 -1.0000000  0.0000000 )
                  (  1.0000000  0.0000000  0.0000000 )
                  (  0.0000000  0.0000000 -1.0000000 )


      isym = 32     inv.  90 deg rotation - cart. axis [0,0,1]   

 cryst.   s(32) = (    -1          0          1      )
                  (    -1          0          0      )
                  (    -1          1          0      )

 cart.    s(32) = (  0.0000000  1.0000000  0.0000000 )
                  ( -1.0000000  0.0000000  0.0000000 )
                  (  0.0000000  0.0000000 -1.0000000 )


      isym = 33     inv. 180 deg rotation - cart. axis [1,0,1]   

 cryst.   s(33) = (     1          0          0      )
                  (     0          0          1      )
                  (     0          1          0      )

 cart.    s(33) = (  0.0000000  0.0000000 -1.0000000 )
                  (  0.0000000  1.0000000  0.0000000 )
                  ( -1.0000000  0.0000000  0.0000000 )


      isym = 34     inv. 180 deg rotation - cart. axis [-1,0,1]  

 cryst.   s(34) = (    -1          0          0      )
                  (    -1          1          0      )
                  (    -1          0          1      )

 cart.    s(34) = (  0.0000000  0.0000000  1.0000000 )
                  (  0.0000000  1.0000000  0.0000000 )
                  (  1.0000000  0.0000000  0.0000000 )


      isym = 35     inv.  90 deg rotation - cart. axis [0,1,0]   

 cryst.   s(35) = (     0         -1          1      )
                  (     1         -1          0      )
                  (     0         -1          0      )

 cart.    s(35) = (  0.0000000  0.0000000 -1.0000000 )
                  (  0.0000000 -1.0000000  0.0000000 )
                  (  1.0000000  0.0000000  0.0000000 )


      isym = 36     inv.  90 deg rotation - cart. axis [0,-1,0]  

 cryst.   s(36) = (     0          1         -1      )
                  (     0          0         -1      )
                  (     1          0         -1      )

 cart.    s(36) = (  0.0000000  0.0000000  1.0000000 )
                  (  0.0000000 -1.0000000  0.0000000 )
                  ( -1.0000000  0.0000000  0.0000000 )


      isym = 37     inv. 180 deg rotation - cart. axis [0,1,1]   

 cryst.   s(37) = (     1         -1          0      )
                  (     0         -1          0      )
                  (     0         -1          1      )

 cart.    s(37) = (  1.0000000  0.0000000  0.0000000 )
                  (  0.0000000  0.0000000 -1.0000000 )
                  (  0.0000000 -1.0000000  0.0000000 )


      isym = 38     inv. 180 deg rotation - cart. axis [0,1,-1]  

 cryst.   s(38) = (     0          0          1      )
                  (     0          1          0      )
                  (     1          0          0      )

 cart.    s(38) = (  1.0000000  0.0000000  0.0000000 )
                  (  0.0000000  0.0000000  1.0000000 )
                  (  0.0000000  1.0000000  0.0000000 )


      isym = 39     inv.  90 deg rotation - cart. axis [-1,0,0]  

 cryst.   s(39) = (     0          0         -1      )
                  (     1          0         -1      )
                  (     0          1         -1      )

 cart.    s(39) = ( -1.0000000  0.0000000  0.0000000 )
                  (  0.0000000  0.0000000 -1.0000000 )
                  (  0.0000000  1.0000000  0.0000000 )


      isym = 40     inv.  90 deg rotation - cart. axis [1,0,0]   

 cryst.   s(40) = (    -1          1          0      )
                  (    -1          0          1      )
                  (    -1          0          0      )

 cart.    s(40) = ( -1.0000000  0.0000000  0.0000000 )
                  (  0.0000000  0.0000000  1.0000000 )
                  (  0.0000000 -1.0000000  0.0000000 )


      isym = 41     inv. 120 deg rotation - cart. axis [-1,-1,-1]

 cryst.   s(41) = (     1          0         -1      )    f =( -0.2500000 )
                  (     1         -1          0      )       ( -0.2500000 )
                  (     1          0          0      )       ( -0.2500000 )

 cart.    s(41) = (  0.0000000 -1.0000000  0.0000000 )    f =(  0.2500000 )
                  (  0.0000000  0.0000000 -1.0000000 )       ( -0.2500000 )
                  ( -1.0000000  0.0000000  0.0000000 )       ( -0.2500000 )


      isym = 42     inv. 120 deg rotation - cart. axis [-1,1,1]  

 cryst.   s(42) = (     0         -1          0      )    f =( -0.2500000 )
                  (     0          0         -1      )       ( -0.2500000 )
                  (    -1          0          0      )       ( -0.2500000 )

 cart.    s(42) = (  0.0000000  1.0000000  0.0000000 )    f =(  0.2500000 )
                  (  0.0000000  0.0000000 -1.0000000 )       ( -0.2500000 )
                  (  1.0000000  0.0000000  0.0000000 )       ( -0.2500000 )


      isym = 43     inv. 120 deg rotation - cart. axis [1,1,-1]  

 cryst.   s(43) = (    -1          0          1      )    f =( -0.2500000 )
                  (     0          0          1      )       ( -0.2500000 )
                  (     0         -1          1      )       ( -0.2500000 )

 cart.    s(43) = (  0.0000000 -1.0000000  0.0000000 )    f =(  0.2500000 )
                  (  0.0000000  0.0000000  1.0000000 )       ( -0.2500000 )
                  (  1.0000000  0.0000000  0.0000000 )       ( -0.2500000 )


      isym = 44     inv. 120 deg rotation - cart. axis [1,-1,1]  

 cryst.   s(44) = (     0          1          0      )    f =( -0.2500000 )
                  (    -1          1          0      )       ( -0.2500000 )
                  (     0          1         -1      )       ( -0.2500000 )

 cart.    s(44) = (  0.0000000  1.0000000  0.0000000 )    f =(  0.2500000 )
                  (  0.0000000  0.0000000  1.0000000 )       ( -0.2500000 )
                  ( -1.0000000  0.0000000  0.0000000 )       ( -0.2500000 )


      isym = 45     inv. 120 deg rotation - cart. axis [1,1,1]   

 cryst.   s(45) = (     0          0          1      )    f =( -0.2500000 )
                  (     0         -1          1      )       ( -0.2500000 )
                  (    -1          0          1      )       ( -0.2500000 )

 cart.    s(45) = (  0.0000000  0.0000000 -1.0000000 )    f =(  0.2500000 )
                  ( -1.0000000  0.0000000  0.0000000 )       ( -0.2500000 )
                  (  0.0000000 -1.0000000  0.0000000 )       ( -0.2500000 )


      isym = 46     inv. 120 deg rotation - cart. axis [-1,1,-1] 

 cryst.   s(46) = (     1         -1          0      )    f =( -0.2500000 )
                  (     1          0          0      )       ( -0.2500000 )
                  (     1          0         -1      )       ( -0.2500000 )

 cart.    s(46) = (  0.0000000  0.0000000 -1.0000000 )    f =(  0.2500000 )
                  (  1.0000000  0.0000000  0.0000000 )       ( -0.2500000 )
                  (  0.0000000  1.0000000  0.0000000 )       ( -0.2500000 )


      isym = 47     inv. 120 deg rotation - cart. axis [1,-1,-1] 

 cryst.   s(47) = (     0          0         -1      )    f =( -0.2500000 )
                  (    -1          0          0      )       ( -0.2500000 )
                  (     0         -1          0      )       ( -0.2500000 )

 cart.    s(47) = (  0.0000000  0.0000000  1.0000000 )    f =(  0.2500000 )
                  (  1.0000000  0.0000000  0.0000000 )       ( -0.2500000 )
                  (  0.0000000 -1.0000000  0.0000000 )       ( -0.2500000 )


      isym = 48     inv. 120 deg rotation - cart. axis [-1,-1,1] 

 cryst.   s(48) = (    -1          1          0      )    f =( -0.2500000 )
                  (     0          1         -1      )       ( -0.2500000 )
                  (     0          1          0      )       ( -0.2500000 )

 cart.    s(48) = (  0.0000000  0.0000000  1.0000000 )    f =(  0.2500000 )
                  ( -1.0000000  0.0000000  0.0000000 )       ( -0.2500000 )
                  (  0.0000000  1.0000000  0.0000000 )       ( -0.2500000 )


     point group O_h (m-3m) 
     there are 10 classes
     the character table:

       E     8C3   3C2   6C4   6C2'  i     8S6   3s_h  6S4   6s_d 
A_1g   1.00  1.00  1.00  1.00  1.00  1.00  1.00  1.00  1.00  1.00
A_2g   1.00  1.00  1.00 -1.00 -1.00  1.00  1.00  1.00 -1.00 -1.00
E_g    2.00 -1.00  2.00  0.00  0.00  2.00 -1.00  2.00  0.00  0.00
T_1g   3.00  0.00 -1.00  1.00 -1.00  3.00  0.00 -1.00  1.00 -1.00
T_2g   3.00  0.00 -1.00 -1.00  1.00  3.00  0.00 -1.00 -1.00  1.00
A_1u   1.00  1.00  1.00  1.00  1.00 -1.00 -1.00 -1.00 -1.00 -1.00
A_2u   1.00  1.00  1.00 -1.00 -1.00 -1.00 -1.00 -1.00  1.00  1.00
E_u    2.00 -1.00  2.00  0.00  0.00 -2.00  1.00 -2.00  0.00  0.00
T_1u   3.00  0.00 -1.00  1.00 -1.00 -3.00  0.00  1.00 -1.00  1.00
T_2u   3.00  0.00 -1.00 -1.00  1.00 -3.00  0.00  1.00  1.00 -1.00

     the symmetry operations in each class and the name of the first element:

     E        1
          identity                                               
     8C3     17   19   20   18   24   21   22   23
          120 deg rotation - cart. axis [-1,-1,-1]               
     3C2      2    4    3
          180 deg rotation - cart. axis [0,0,1]                  
     6C4      7    8   15   16   12   11
           90 deg rotation - cart. axis [0,0,-1]                 
     6C2'     5    6   14   13   10    9
          180 deg rotation - cart. axis [1,1,0]                  
     i       25
          inversion                                              
     8S6     41   43   44   42   48   45   46   47
          inv. 120 deg rotation - cart. axis [-1,-1,-1]          
     3s_h    26   28   27
          inv. 180 deg rotation - cart. axis [0,0,1]             
     6S4     31   32   39   40   36   35
          inv.  90 deg rotation - cart. axis [0,0,-1]            
     6s_d    29   30   38   37   34   33
          inv. 180 deg rotation - cart. axis [1,1,0]             

   Cartesian axes

     site n.     atom                  positions (alat units)
         1           Si  tau(   1) = (   0.0000000   0.0000000   0.0000000  )
         2           Si  tau(   2) = (  -0.2500000   0.2500000   0.2500000  )

   Crystallographic axes

     site n.     atom                  positions (cryst. coord.)
         1           Si  tau(   1) = (  0.0000000  0.0000000  0.0000000  )
         2           Si  tau(   2) = (  0.2500000  0.2500000  0.2500000  )

     number of k points=    60  Gaussian smearing, width (Ry)=  0.0010
                       cart. coord. in units 2pi/alat
        k(    1) = (  -0.0625000   0.0625000   0.0625000), wk =   0.0078125
        k(    2) = (  -0.1875000   0.1875000  -0.0625000), wk =   0.0234375
        k(    3) = (  -0.3125000   0.3125000  -0.1875000), wk =   0.0234375
        k(    4) = (  -0.4375000   0.4375000  -0.3125000), wk =   0.0234375
        k(    5) = (   0.4375000  -0.4375000   0.5625000), wk =   0.0234375
        k(    6) = (   0.3125000  -0.3125000   0.4375000), wk =   0.0234375
        k(    7) = (   0.1875000  -0.1875000   0.3125000), wk =   0.0234375
        k(    8) = (   0.0625000  -0.0625000   0.1875000), wk =   0.0234375
        k(    9) = (  -0.0625000   0.3125000   0.0625000), wk =   0.0234375
        k(   10) = (  -0.1875000   0.4375000  -0.0625000), wk =   0.0468750
        k(   11) = (  -0.3125000   0.5625000  -0.1875000), wk =   0.0468750
        k(   12) = (   0.5625000  -0.3125000   0.6875000), wk =   0.0468750
        k(   13) = (   0.4375000  -0.1875000   0.5625000), wk =   0.0468750
        k(   14) = (   0.3125000  -0.0625000   0.4375000), wk =   0.0468750
        k(   15) = (   0.1875000   0.0625000   0.3125000), wk =   0.0468750
        k(   16) = (  -0.0625000   0.5625000   0.0625000), wk =   0.0234375
        k(   17) = (  -0.1875000   0.6875000  -0.0625000), wk =   0.0468750
        k(   18) = (   0.6875000  -0.1875000   0.8125000), wk =   0.0468750
        k(   19) = (   0.5625000  -0.0625000   0.6875000), wk =   0.0468750
        k(   20) = (   0.4375000   0.0625000   0.5625000), wk =   0.0468750
        k(   21) = (   0.3125000   0.1875000   0.4375000), wk =   0.0468750
        k(   22) = (  -0.0625000   0.8125000   0.0625000), wk =   0.0234375
        k(   23) = (   0.8125000  -0.0625000   0.9375000), wk =   0.0468750
        k(   24) = (   0.6875000   0.0625000   0.8125000), wk =   0.0468750
        k(   25) = (   0.5625000   0.1875000   0.6875000), wk =   0.0468750
        k(   26) = (   0.4375000   0.3125000   0.5625000), wk =   0.0468750
        k(   27) = (  -0.0625000  -0.9375000   0.0625000), wk =   0.0234375
        k(   28) = (  -0.1875000  -0.8125000  -0.0625000), wk =   0.0468750
        k(   29) = (  -0.3125000  -0.6875000  -0.1875000), wk =   0.0468750
        k(   30) = (  -0.0625000  -0.6875000   0.0625000), wk =   0.0234375
        k(   31) = (  -0.1875000  -0.5625000  -0.0625000), wk =   0.0468750
        k(   32) = (  -0.0625000  -0.4375000   0.0625000), wk =   0.0234375
        k(   33) = (  -0.1875000   0.1875000   0.1875000), wk =   0.0078125
        k(   34) = (  -0.3125000   0.3125000   0.0625000), wk =   0.0234375
        k(   35) = (  -0.4375000   0.4375000  -0.0625000), wk =   0.0234375
        k(   36) = (   0.4375000  -0.4375000   0.8125000), wk =   0.0234375
        k(   37) = (   0.3125000  -0.3125000   0.6875000), wk =   0.0234375
        k(   38) = (   0.1875000  -0.1875000   0.5625000), wk =   0.0234375
        k(   39) = (  -0.1875000   0.4375000   0.1875000), wk =   0.0234375
        k(   40) = (  -0.3125000   0.5625000   0.0625000), wk =   0.0468750
        k(   41) = (   0.5625000  -0.3125000   0.9375000), wk =   0.0468750
        k(   42) = (   0.4375000  -0.1875000   0.8125000), wk =   0.0468750
        k(   43) = (   0.3125000  -0.0625000   0.6875000), wk =   0.0468750
        k(   44) = (  -0.1875000   0.6875000   0.1875000), wk =   0.0234375
        k(   45) = (   0.6875000  -0.1875000   1.0625000), wk =   0.0468750
        k(   46) = (   0.5625000  -0.0625000   0.9375000), wk =   0.0468750
        k(   47) = (   0.4375000   0.0625000   0.8125000), wk =   0.0468750
        k(   48) = (  -0.1875000  -1.0625000   0.1875000), wk =   0.0234375
        k(   49) = (  -0.3125000  -0.9375000   0.0625000), wk =   0.0468750
        k(   50) = (  -0.1875000  -0.8125000   0.1875000), wk =   0.0234375
        k(   51) = (  -0.3125000   0.3125000   0.3125000), wk =   0.0078125
        k(   52) = (  -0.4375000   0.4375000   0.1875000), wk =   0.0234375
        k(   53) = (   0.4375000  -0.4375000   1.0625000), wk =   0.0234375
        k(   54) = (   0.3125000  -0.3125000   0.9375000), wk =   0.0234375
        k(   55) = (  -0.3125000   0.5625000   0.3125000), wk =   0.0234375
        k(   56) = (   0.5625000  -0.3125000   1.1875000), wk =   0.0468750
        k(   57) = (   0.4375000  -0.1875000   1.0625000), wk =   0.0468750
        k(   58) = (  -0.3125000  -1.1875000   0.3125000), wk =   0.0234375
        k(   59) = (  -0.4375000   0.4375000   0.4375000), wk =   0.0078125
        k(   60) = (   0.4375000  -0.4375000   1.3125000), wk =   0.0234375

                       cryst. coord.
        k(    1) = (   0.0625000   0.0625000   0.0625000), wk =   0.0078125
        k(    2) = (   0.0625000   0.0625000   0.1875000), wk =   0.0234375
        k(    3) = (   0.0625000   0.0625000   0.3125000), wk =   0.0234375
        k(    4) = (   0.0625000   0.0625000   0.4375000), wk =   0.0234375
        k(    5) = (   0.0625000   0.0625000  -0.4375000), wk =   0.0234375
        k(    6) = (   0.0625000   0.0625000  -0.3125000), wk =   0.0234375
        k(    7) = (   0.0625000   0.0625000  -0.1875000), wk =   0.0234375
        k(    8) = (   0.0625000   0.0625000  -0.0625000), wk =   0.0234375
        k(    9) = (   0.0625000   0.1875000   0.1875000), wk =   0.0234375
        k(   10) = (   0.0625000   0.1875000   0.3125000), wk =   0.0468750
        k(   11) = (   0.0625000   0.1875000   0.4375000), wk =   0.0468750
        k(   12) = (   0.0625000   0.1875000  -0.4375000), wk =   0.0468750
        k(   13) = (   0.0625000   0.1875000  -0.3125000), wk =   0.0468750
        k(   14) = (   0.0625000   0.1875000  -0.1875000), wk =   0.0468750
        k(   15) = (   0.0625000   0.1875000  -0.0625000), wk =   0.0468750
        k(   16) = (   0.0625000   0.3125000   0.3125000), wk =   0.0234375
        k(   17) = (   0.0625000   0.3125000   0.4375000), wk =   0.0468750
        k(   18) = (   0.0625000   0.3125000  -0.4375000), wk =   0.0468750
        k(   19) = (   0.0625000   0.3125000  -0.3125000), wk =   0.0468750
        k(   20) = (   0.0625000   0.3125000  -0.1875000), wk =   0.0468750
        k(   21) = (   0.0625000   0.3125000  -0.0625000), wk =   0.0468750
        k(   22) = (   0.0625000   0.4375000   0.4375000), wk =   0.0234375
        k(   23) = (   0.0625000   0.4375000  -0.4375000), wk =   0.0468750
        k(   24) = (   0.0625000   0.4375000  -0.3125000), wk =   0.0468750
        k(   25) = (   0.0625000   0.4375000  -0.1875000), wk =   0.0468750
        k(   26) = (   0.0625000   0.4375000  -0.0625000), wk =   0.0468750
        k(   27) = (   0.0625000  -0.4375000  -0.4375000), wk =   0.0234375
        k(   28) = (   0.0625000  -0.4375000  -0.3125000), wk =   0.0468750
        k(   29) = (   0.0625000  -0.4375000  -0.1875000), wk =   0.0468750
        k(   30) = (   0.0625000  -0.3125000  -0.3125000), wk =   0.0234375
        k(   31) = (   0.0625000  -0.3125000  -0.1875000), wk =   0.0468750
        k(   32) = (   0.0625000  -0.1875000  -0.1875000), wk =   0.0234375
        k(   33) = (   0.1875000   0.1875000   0.1875000), wk =   0.0078125
        k(   34) = (   0.1875000   0.1875000   0.3125000), wk =   0.0234375
        k(   35) = (   0.1875000   0.1875000   0.4375000), wk =   0.0234375
        k(   36) = (   0.1875000   0.1875000  -0.4375000), wk =   0.0234375
        k(   37) = (   0.1875000   0.1875000  -0.3125000), wk =   0.0234375
        k(   38) = (   0.1875000   0.1875000  -0.1875000), wk =   0.0234375
        k(   39) = (   0.1875000   0.3125000   0.3125000), wk =   0.0234375
        k(   40) = (   0.1875000   0.3125000   0.4375000), wk =   0.0468750
        k(   41) = (   0.1875000   0.3125000  -0.4375000), wk =   0.0468750
        k(   42) = (   0.1875000   0.3125000  -0.3125000), wk =   0.0468750
        k(   43) = (   0.1875000   0.3125000  -0.1875000), wk =   0.0468750
        k(   44) = (   0.1875000   0.4375000   0.4375000), wk =   0.0234375
        k(   45) = (   0.1875000   0.4375000  -0.4375000), wk =   0.0468750
        k(   46) = (   0.1875000   0.4375000  -0.3125000), wk =   0.0468750
        k(   47) = (   0.1875000   0.4375000  -0.1875000), wk =   0.0468750
        k(   48) = (   0.1875000  -0.4375000  -0.4375000), wk =   0.0234375
        k(   49) = (   0.1875000  -0.4375000  -0.3125000), wk =   0.0468750
        k(   50) = (   0.1875000  -0.3125000  -0.3125000), wk =   0.0234375
        k(   51) = (   0.3125000   0.3125000   0.3125000), wk =   0.0078125
        k(   52) = (   0.3125000   0.3125000   0.4375000), wk =   0.0234375
        k(   53) = (   0.3125000   0.3125000  -0.4375000), wk =   0.0234375
        k(   54) = (   0.3125000   0.3125000  -0.3125000), wk =   0.0234375
        k(   55) = (   0.3125000   0.4375000   0.4375000), wk =   0.0234375
        k(   56) = (   0.3125000   0.4375000  -0.4375000), wk =   0.0468750
        k(   57) = (   0.3125000   0.4375000  -0.3125000), wk =   0.0468750
        k(   58) = (   0.3125000  -0.4375000  -0.4375000), wk =   0.0234375
        k(   59) = (   0.4375000   0.4375000   0.4375000), wk =   0.0078125
        k(   60) = (   0.4375000   0.4375000  -0.4375000), wk =   0.0234375

     Dense  grid:   126309 G-vectors     FFT dimensions: (  72,  72,  72)

     Dynamical RAM for                 wfc:       0.96 MB

     Dynamical RAM for     wfc (w. buffer):      29.89 MB

     Dynamical RAM for           str. fact:       0.96 MB

     Dynamical RAM for           local pot:       0.00 MB

     Dynamical RAM for          nlocal pot:       2.65 MB

     Dynamical RAM for                qrad:       0.35 MB

     Dynamical RAM for          rho,v,vnew:       7.16 MB

     Dynamical RAM for               rhoin:       2.39 MB

     Dynamical RAM for            rho*nmix:      15.42 MB

     Dynamical RAM for           G-vectors:       4.10 MB

     Dynamical RAM for          h,s,v(r/c):       0.01 MB

     Dynamical RAM for          <psi|beta>:       0.00 MB

     Dynamical RAM for                 psi:       1.93 MB

     Dynamical RAM for                hpsi:       1.93 MB

     Dynamical RAM for      wfcinit/wfcrot:       7.74 MB

     Estimated static dynamical RAM per process >      56.55 MB

     Estimated max dynamical RAM per process >      79.71 MB

     Estimated total dynamical RAM >     287.99 MB

     Initial potential from superposition of free atoms

     starting charge       7.9986, renormalised to       8.0000

     negative rho (up, down):  9.000E-05 0.000E+00
     Starting wfcs are   32 randomized atomic wfcs

     total cpu time spent up to now is        5.2 secs

     Self-consistent Calculation

     iteration #  1     ecut=    30.00 Ry     beta= 0.50
     Davidson diagonalization with overlap

---- Real-time Memory Report at c_bands before calling an iterative solver
           121 MiB given to the printing process from OS
             0 MiB allocation reported by mallinfo(arena+hblkhd)
        431581 MiB available memory on the node where the printing process lives
------------------
     ethr =  1.00E-02,  avg # of iterations =  1.0

     Threshold (ethr) on eigenvalues was too large:
     Diagonalizing with lowered threshold

     Davidson diagonalization with overlap

---- Real-time Memory Report at c_bands before calling an iterative solver
           122 MiB given to the printing process from OS
             0 MiB allocation reported by mallinfo(arena+hblkhd)
        429721 MiB available memory on the node where the printing process lives
------------------
     ethr =  9.80E-06,  avg # of iterations =  3.2

     negative rho (up, down):  3.631E-06 0.000E+00

     total cpu time spent up to now is       13.2 secs

     total energy              =     -14.98185505 Ry
     estimated scf accuracy    <       0.00099683 Ry

     iteration #  2     ecut=    30.00 Ry     beta= 0.50
     Davidson diagonalization with overlap

---- Real-time Memory Report at c_bands before calling an iterative solver
           147 MiB given to the printing process from OS
             0 MiB allocation reported by mallinfo(arena+hblkhd)
        427708 MiB available memory on the node where the printing process lives
------------------
     ethr =  1.25E-05,  avg # of iterations =  1.6

     total cpu time spent up to now is       16.6 secs

     total energy              =     -14.98197815 Ry
     estimated scf accuracy    <       0.00011555 Ry

     iteration #  3     ecut=    30.00 Ry     beta= 0.50
     Davidson diagonalization with overlap

---- Real-time Memory Report at c_bands before calling an iterative solver
           150 MiB given to the printing process from OS
             0 MiB allocation reported by mallinfo(arena+hblkhd)
        426472 MiB available memory on the node where the printing process lives
------------------
     ethr =  1.44E-06,  avg # of iterations =  2.4

     total cpu time spent up to now is       20.6 secs

     total energy              =     -14.98202157 Ry
     estimated scf accuracy    <       0.00001036 Ry

     iteration #  4     ecut=    30.00 Ry     beta= 0.50
     Davidson diagonalization with overlap

---- Real-time Memory Report at c_bands before calling an iterative solver
           153 MiB given to the printing process from OS
             0 MiB allocation reported by mallinfo(arena+hblkhd)
        424847 MiB available memory on the node where the printing process lives
------------------
     ethr =  1.29E-07,  avg # of iterations =  2.0

     total cpu time spent up to now is       24.5 secs

     total energy              =     -14.98202366 Ry
     estimated scf accuracy    <       0.00000314 Ry

     iteration #  5     ecut=    30.00 Ry     beta= 0.50
     Davidson diagonalization with overlap

---- Real-time Memory Report at c_bands before calling an iterative solver
           155 MiB given to the printing process from OS
             0 MiB allocation reported by mallinfo(arena+hblkhd)
        423801 MiB available memory on the node where the printing process lives
------------------
     ethr =  3.92E-08,  avg # of iterations =  2.0

     total cpu time spent up to now is       28.5 secs

     total energy              =     -14.98202419 Ry
     estimated scf accuracy    <       0.00000005 Ry

     iteration #  6     ecut=    30.00 Ry     beta= 0.50
     Davidson diagonalization with overlap

---- Real-time Memory Report at c_bands before calling an iterative solver
           158 MiB given to the printing process from OS
             0 MiB allocation reported by mallinfo(arena+hblkhd)
        423396 MiB available memory on the node where the printing process lives
------------------
     ethr =  6.04E-10,  avg # of iterations =  3.9

     total cpu time spent up to now is       33.0 secs

     total energy              =     -14.98202409 Ry
     estimated scf accuracy    <       0.00000006 Ry

     iteration #  7     ecut=    30.00 Ry     beta= 0.50
     Davidson diagonalization with overlap

---- Real-time Memory Report at c_bands before calling an iterative solver
           161 MiB given to the printing process from OS
             0 MiB allocation reported by mallinfo(arena+hblkhd)
        421456 MiB available memory on the node where the printing process lives
------------------
     ethr =  6.04E-10,  avg # of iterations =  2.0

     total cpu time spent up to now is       36.9 secs

     End of self-consistent calculation

          k =-0.0625 0.0625 0.0625 ( 15794 PWs)   bands (ev):

   -10.3596 -10.3438  -3.6521  -3.6521  -3.6518  -3.5570  -3.5563  -3.5563

     occupation numbers 
     1.0000   1.0000   0.4608   0.4608   0.4471   0.0000   0.0000   0.0000

          k =-0.1875 0.1875-0.0625 ( 15850 PWs)   bands (ev):

   -10.3591 -10.3446  -3.6569  -3.6541  -3.6517  -3.5584  -3.5544  -3.5517

     occupation numbers 
     1.0000   1.0000   0.6555   0.5403   0.4432   0.0000   0.0000   0.0000

          k =-0.3125 0.3125-0.1875 ( 15811 PWs)   bands (ev):

   -10.3577 -10.3458  -3.6632  -3.6589  -3.6529  -3.5596  -3.5496  -3.5460

     occupation numbers 
     1.0000   1.0000   0.8526   0.7266   0.4908   0.0000   0.0000   0.0000

          k =-0.4375 0.4375-0.3125 ( 15792 PWs)   bands (ev):

   -10.3561 -10.3473  -3.6677  -3.6635  -3.6542  -3.5602  -3.5450  -3.5420

     occupation numbers 
     1.0000   1.0000   0.9359   0.8603   0.5460   0.0000   0.0000   0.0000

          k = 0.4375-0.4375 0.5625 ( 15798 PWs)   bands (ev):

   -10.3555 -10.3479  -3.6686  -3.6655  -3.6544  -3.5604  -3.5430  -3.5414

     occupation numbers 
     1.0000   1.0000   0.9462   0.9012   0.5556   0.0000   0.0000   0.0000

          k = 0.3125-0.3125 0.4375 ( 15809 PWs)   bands (ev):

   -10.3567 -10.3468  -3.6654  -3.6639  -3.6532  -3.5605  -3.5446  -3.5444

     occupation numbers 
     1.0000   1.0000   0.8992   0.8704   0.5035   0.0000   0.0000   0.0000

          k = 0.1875-0.1875 0.3125 ( 15814 PWs)   bands (ev):

   -10.3582 -10.3453  -3.6597  -3.6596  -3.6513  -3.5601  -3.5494  -3.5490

     occupation numbers 
     1.0000   1.0000   0.7545   0.7496   0.4277   0.0000   0.0000   0.0000

          k = 0.0625-0.0625 0.1875 ( 15839 PWs)   bands (ev):

   -10.3594 -10.3442  -3.6546  -3.6545  -3.6504  -3.5590  -3.5541  -3.5539

     occupation numbers 
     1.0000   1.0000   0.5617   0.5587   0.3904   0.0000   0.0000   0.0000

          k =-0.0625 0.3125 0.0625 ( 15839 PWs)   bands (ev):

   -10.3587 -10.3449  -3.6589  -3.6588  -3.6473  -3.5634  -3.5498  -3.5498

     occupation numbers 
     1.0000   1.0000   0.7265   0.7241   0.2748   0.0000   0.0000   0.0000

          k =-0.1875 0.4375-0.0625 ( 15822 PWs)   bands (ev):

   -10.3576 -10.3459  -3.6660  -3.6628  -3.6444  -3.5680  -3.5459  -3.5431

     occupation numbers 
     1.0000   1.0000   0.9105   0.8441   0.1835   0.0000   0.0000   0.0000

          k =-0.3125 0.5625-0.1875 ( 15814 PWs)   bands (ev):

   -10.3561 -10.3474  -3.6724  -3.6669  -3.6427  -3.5711  -3.5418  -3.5377

     occupation numbers 
     1.0000   1.0000   0.9779   0.9246   0.1407   0.0000   0.0000   0.0000

          k = 0.5625-0.3125 0.6875 ( 15771 PWs)   bands (ev):

   -10.3549 -10.3484  -3.6759  -3.6682  -3.6424  -3.5720  -3.5404  -3.5350

     occupation numbers 
     1.0000   1.0000   0.9913   0.9424   0.1335   0.0000   0.0000   0.0000

          k = 0.4375-0.1875 0.5625 ( 15794 PWs)   bands (ev):

   -10.3556 -10.3478  -3.6749  -3.6660  -3.6437  -3.5704  -3.5426  -3.5357

     occupation numbers 
     1.0000   1.0000   0.9884   0.9099   0.1641   0.0000   0.0000   0.0000

          k = 0.3125-0.0625 0.4375 ( 15818 PWs)   bands (ev):

   -10.3572 -10.3463  -3.6693  -3.6615  -3.6462  -3.5666  -3.5471  -3.5404

     occupation numbers 
     1.0000   1.0000   0.9545   0.8086   0.2361   0.0000   0.0000   0.0000

          k = 0.1875 0.0625 0.3125 ( 15823 PWs)   bands (ev):

   -10.3585 -10.3451  -3.6611  -3.6577  -3.6491  -3.5619  -3.5510  -3.5478

     occupation numbers 
     1.0000   1.0000   0.7966   0.6838   0.3400   0.0000   0.0000   0.0000

          k =-0.0625 0.5625 0.0625 ( 15803 PWs)   bands (ev):

   -10.3567 -10.3467  -3.6693  -3.6690  -3.6370  -3.5772  -3.5397  -3.5395

     occupation numbers 
     1.0000   1.0000   0.9545   0.9505   0.0472   0.0000   0.0000   0.0000

          k =-0.1875 0.6875-0.0625 ( 15788 PWs)   bands (ev):

   -10.3553 -10.3481  -3.6750  -3.6726  -3.6309  -3.5845  -3.5362  -3.5344

     occupation numbers 
     1.0000   1.0000   0.9888   0.9786   0.0107   0.0000   0.0000   0.0000

          k = 0.6875-0.1875 0.8125 ( 15788 PWs)   bands (ev):

   -10.3539 -10.3495  -3.6798  -3.6735  -3.6273  -3.5882  -3.5353  -3.5308

     occupation numbers 
     1.0000   1.0000   0.9973   0.9830   0.0037   0.0000   0.0000   0.0000

          k = 0.5625-0.0625 0.6875 ( 15796 PWs)   bands (ev):

   -10.3541 -10.3493  -3.6809  -3.6708  -3.6310  -3.5839  -3.5379  -3.5302

     occupation numbers 
     1.0000   1.0000   0.9981   0.9669   0.0108   0.0000   0.0000   0.0000

          k = 0.4375 0.0625 0.5625 ( 15795 PWs)   bands (ev):

   -10.3556 -10.3478  -3.6767  -3.6660  -3.6400  -3.5740  -3.5426  -3.5340

     occupation numbers 
     1.0000   1.0000   0.9929   0.9105   0.0874   0.0000   0.0000   0.0000

          k = 0.3125 0.1875 0.4375 ( 15826 PWs)   bands (ev):

   -10.3570 -10.3465  -3.6677  -3.6625  -3.6490  -3.5640  -3.5462  -3.5420

     occupation numbers 
     1.0000   1.0000   0.9355   0.8354   0.3373   0.0000   0.0000   0.0000

          k =-0.0625 0.8125 0.0625 ( 15783 PWs)   bands (ev):

   -10.3539 -10.3494  -3.6771  -3.6765  -3.6221  -3.5950  -3.5323  -3.5319

     occupation numbers 
     1.0000   1.0000   0.9937   0.9925   0.0006   0.0000   0.0000   0.0000

          k = 0.8125-0.0625 0.9375 ( 15789 PWs)   bands (ev):

   -10.3525 -10.3509  -3.6795  -3.6777  -3.6141  -3.6030  -3.5312  -3.5300

     occupation numbers 
     1.0000   1.0000   0.9970   0.9948   0.0000   0.0000   0.0000   0.0000

          k = 0.6875 0.0625 0.8125 ( 15796 PWs)   bands (ev):

   -10.3529 -10.3505  -3.6815  -3.6749  -3.6210  -3.5949  -3.5339  -3.5292

     occupation numbers 
     1.0000   1.0000   0.9984   0.9884   0.0004   0.0000   0.0000   0.0000

          k = 0.5625 0.1875 0.6875 ( 15793 PWs)   bands (ev):

   -10.3544 -10.3490  -3.6792  -3.6699  -3.6356  -3.5791  -3.5388  -3.5319

     occupation numbers 
     1.0000   1.0000   0.9967   0.9598   0.0345   0.0000   0.0000   0.0000

          k = 0.4375 0.3125 0.5625 ( 15791 PWs)   bands (ev):

   -10.3555 -10.3479  -3.6718  -3.6659  -3.6493  -3.5650  -3.5427  -3.5387

     occupation numbers 
     1.0000   1.0000   0.9739   0.9082   0.3475   0.0000   0.0000   0.0000

          k =-0.0625-0.9375 0.0625 ( 15792 PWs)   bands (ev):

   -10.3525 -10.3509  -3.6788  -3.6781  -3.6136  -3.6042  -3.5307  -3.5303

     occupation numbers 
     1.0000   1.0000   0.9962   0.9954   0.0000   0.0000   0.0000   0.0000

          k =-0.1875-0.8125-0.0625 ( 15786 PWs)   bands (ev):

   -10.3539 -10.3495  -3.6780  -3.6759  -3.6227  -3.5938  -3.5330  -3.5315

     occupation numbers 
     1.0000   1.0000   0.9952   0.9913   0.0008   0.0000   0.0000   0.0000

          k =-0.3125-0.6875-0.1875 ( 15788 PWs)   bands (ev):

   -10.3550 -10.3484  -3.6767  -3.6707  -3.6352  -3.5796  -3.5380  -3.5338

     occupation numbers 
     1.0000   1.0000   0.9929   0.9667   0.0314   0.0000   0.0000   0.0000

          k =-0.0625-0.6875 0.0625 ( 15780 PWs)   bands (ev):

   -10.3554 -10.3479  -3.6738  -3.6733  -3.6300  -3.5858  -3.5354  -3.5351

     occupation numbers 
     1.0000   1.0000   0.9845   0.9823   0.0083   0.0000   0.0000   0.0000

          k =-0.1875-0.5625-0.0625 ( 15816 PWs)   bands (ev):

   -10.3566 -10.3469  -3.6709  -3.6680  -3.6383  -3.5757  -3.5407  -3.5384

     occupation numbers 
     1.0000   1.0000   0.9680   0.9398   0.0618   0.0000   0.0000   0.0000

          k =-0.0625-0.4375 0.0625 ( 15824 PWs)   bands (ev):

   -10.3578 -10.3457  -3.6641  -3.6639  -3.6428  -3.5696  -3.5447  -3.5446

     occupation numbers 
     1.0000   1.0000   0.8745   0.8694   0.1429   0.0000   0.0000   0.0000

          k =-0.1875 0.1875 0.1875 ( 15827 PWs)   bands (ev):

   -10.3588 -10.3448  -3.6560  -3.6560  -3.6536  -3.5573  -3.5524  -3.5524

     occupation numbers 
     1.0000   1.0000   0.6212   0.6212   0.5227   0.0000   0.0000   0.0000

          k =-0.3125 0.3125 0.0625 ( 15824 PWs)   bands (ev):

   -10.3579 -10.3456  -3.6649  -3.6576  -3.6499  -3.5620  -3.5508  -3.5444

     occupation numbers 
     1.0000   1.0000   0.8898   0.6818   0.3707   0.0000   0.0000   0.0000

          k =-0.4375 0.4375-0.0625 ( 15799 PWs)   bands (ev):

   -10.3565 -10.3470  -3.6732  -3.6624  -3.6451  -3.5683  -3.5461  -3.5371

     occupation numbers 
     1.0000   1.0000   0.9816   0.8324   0.2029   0.0000   0.0000   0.0000

          k = 0.4375-0.4375 0.8125 ( 15799 PWs)   bands (ev):

   -10.3550 -10.3484  -3.6773  -3.6671  -3.6411  -3.5733  -3.5414  -3.5337

     occupation numbers 
     1.0000   1.0000   0.9942   0.9281   0.1072   0.0000   0.0000   0.0000

          k = 0.3125-0.3125 0.6875 ( 15794 PWs)   bands (ev):

   -10.3550 -10.3484  -3.6762  -3.6694  -3.6394  -3.5752  -3.5392  -3.5346

     occupation numbers 
     1.0000   1.0000   0.9919   0.9554   0.0773   0.0000   0.0000   0.0000

          k = 0.1875-0.1875 0.5625 ( 15816 PWs)   bands (ev):

   -10.3564 -10.3471  -3.6708  -3.6682  -3.6402  -3.5737  -3.5405  -3.5390

     occupation numbers 
     1.0000   1.0000   0.9674   0.9415   0.0900   0.0000   0.0000   0.0000

          k =-0.1875 0.4375 0.1875 ( 15829 PWs)   bands (ev):

   -10.3574 -10.3462  -3.6653  -3.6638  -3.6465  -3.5661  -3.5447  -3.5443

     occupation numbers 
     1.0000   1.0000   0.8973   0.8682   0.2462   0.0000   0.0000   0.0000

          k =-0.3125 0.5625 0.0625 ( 15817 PWs)   bands (ev):

   -10.3562 -10.3473  -3.6736  -3.6666  -3.6399  -3.5740  -3.5422  -3.5364

     occupation numbers 
     1.0000   1.0000   0.9836   0.9197   0.0851   0.0000   0.0000   0.0000

          k = 0.5625-0.3125 0.9375 ( 15791 PWs)   bands (ev):

   -10.3546 -10.3488  -3.6792  -3.6705  -3.6325  -3.5821  -3.5383  -3.5316

     occupation numbers 
     1.0000   1.0000   0.9967   0.9652   0.0163   0.0000   0.0000   0.0000

          k = 0.4375-0.1875 0.8125 ( 15783 PWs)   bands (ev):

   -10.3539 -10.3495  -3.6802  -3.6728  -3.6289  -3.5861  -3.5362  -3.5307

     occupation numbers 
     1.0000   1.0000   0.9976   0.9797   0.0060   0.0000   0.0000   0.0000

          k = 0.3125-0.0625 0.6875 ( 15796 PWs)   bands (ev):

   -10.3550 -10.3484  -3.6771  -3.6714  -3.6321  -3.5828  -3.5375  -3.5331

     occupation numbers 
     1.0000   1.0000   0.9937   0.9717   0.0147   0.0000   0.0000   0.0000

          k =-0.1875 0.6875 0.1875 ( 15801 PWs)   bands (ev):

   -10.3552 -10.3482  -3.6756  -3.6719  -3.6328  -3.5824  -3.5368  -3.5344

     occupation numbers 
     1.0000   1.0000   0.9903   0.9749   0.0174   0.0000   0.0000   0.0000

          k = 0.6875-0.1875 1.0625 ( 15776 PWs)   bands (ev):

   -10.3537 -10.3496  -3.6793  -3.6753  -3.6234  -3.5923  -3.5339  -3.5309

     occupation numbers 
     1.0000   1.0000   0.9968   0.9894   0.0010   0.0000   0.0000   0.0000

          k = 0.5625-0.0625 0.9375 ( 15800 PWs)   bands (ev):

   -10.3525 -10.3510  -3.6805  -3.6775  -3.6149  -3.6006  -3.5321  -3.5299

     occupation numbers 
     1.0000   1.0000   0.9978   0.9945   0.0000   0.0000   0.0000   0.0000

          k = 0.4375 0.0625 0.8125 ( 15787 PWs)   bands (ev):

   -10.3535 -10.3499  -3.6805  -3.6746  -3.6237  -3.5915  -3.5346  -3.5302

     occupation numbers 
     1.0000   1.0000   0.9978   0.9875   0.0011   0.0000   0.0000   0.0000

          k =-0.1875-1.0625 0.1875 ( 15792 PWs)   bands (ev):

   -10.3526 -10.3508  -3.6808  -3.6761  -3.6176  -3.5990  -3.5326  -3.5294

     occupation numbers 
     1.0000   1.0000   0.9980   0.9917   0.0001   0.0000   0.0000   0.0000

          k =-0.3125-0.9375 0.0625 ( 15783 PWs)   bands (ev):

   -10.3524 -10.3509  -3.6802  -3.6776  -3.6146  -3.6016  -3.5318  -3.5299

     occupation numbers 
     1.0000   1.0000   0.9976   0.9945   0.0000   0.0000   0.0000   0.0000

          k =-0.1875-0.8125 0.1875 ( 15790 PWs)   bands (ev):

   -10.3539 -10.3495  -3.6790  -3.6747  -3.6247  -3.5914  -3.5341  -3.5311

     occupation numbers 
     1.0000   1.0000   0.9965   0.9876   0.0016   0.0000   0.0000   0.0000

          k =-0.3125 0.3125 0.3125 ( 15838 PWs)   bands (ev):

   -10.3574 -10.3463  -3.6611  -3.6611  -3.6565  -3.5574  -3.5474  -3.5474

     occupation numbers 
     1.0000   1.0000   0.7984   0.7984   0.6394   0.0000   0.0000   0.0000

          k =-0.4375 0.4375 0.1875 ( 15802 PWs)   bands (ev):

   -10.3564 -10.3471  -3.6713  -3.6628  -3.6486  -3.5651  -3.5457  -3.5390

     occupation numbers 
     1.0000   1.0000   0.9707   0.8426   0.3199   0.0000   0.0000   0.0000

          k = 0.4375-0.4375 1.0625 ( 15801 PWs)   bands (ev):

   -10.3549 -10.3486  -3.6793  -3.6675  -3.6370  -3.5774  -3.5410  -3.5318

     occupation numbers 
     1.0000   1.0000   0.9968   0.9335   0.0475   0.0000   0.0000   0.0000

          k = 0.3125-0.3125 0.9375 ( 15800 PWs)   bands (ev):

   -10.3536 -10.3499  -3.6818  -3.6724  -3.6270  -3.5884  -3.5363  -3.5294

     occupation numbers 
     1.0000   1.0000   0.9986   0.9775   0.0033   0.0000   0.0000   0.0000

          k =-0.3125 0.5625 0.3125 ( 15803 PWs)   bands (ev):

   -10.3559 -10.3476  -3.6712  -3.6668  -3.6468  -3.5672  -3.5417  -3.5393

     occupation numbers 
     1.0000   1.0000   0.9700   0.9238   0.2557   0.0000   0.0000   0.0000

          k = 0.5625-0.3125 1.1875 ( 15783 PWs)   bands (ev):

   -10.3547 -10.3486  -3.6780  -3.6698  -3.6365  -3.5780  -3.5390  -3.5329

     occupation numbers 
     1.0000   1.0000   0.9953   0.9584   0.0429   0.0000   0.0000   0.0000

          k = 0.4375-0.1875 1.0625 ( 15795 PWs)   bands (ev):

   -10.3532 -10.3502  -3.6813  -3.6744  -3.6230  -3.5923  -3.5347  -3.5296

     occupation numbers 
     1.0000   1.0000   0.9983   0.9868   0.0009   0.0000   0.0000   0.0000

          k =-0.3125-1.1875 0.3125 ( 15783 PWs)   bands (ev):

   -10.3541 -10.3492  -3.6799  -3.6714  -3.6321  -3.5830  -3.5373  -3.5312

     occupation numbers 
     1.0000   1.0000   0.9973   0.9712   0.0146   0.0000   0.0000   0.0000

          k =-0.4375 0.4375 0.4375 ( 15805 PWs)   bands (ev):

   -10.3559 -10.3475  -3.6644  -3.6644  -3.6587  -3.5572  -3.5440  -3.5440

     occupation numbers 
     1.0000   1.0000   0.8813   0.8813   0.7221   0.0000   0.0000   0.0000

          k = 0.4375-0.4375 1.3125 ( 15775 PWs)   bands (ev):

   -10.3552 -10.3481  -3.6736  -3.6664  -3.6476  -3.5668  -3.5421  -3.5371

     occupation numbers 
     1.0000   1.0000   0.9836   0.9172   0.2833   0.0000   0.0000   0.0000

     the Fermi energy is    -3.6531 ev

!    total energy              =     -14.98202415 Ry
     estimated scf accuracy    <          2.9E-09 Ry
     smearing contrib. (-TS)   =      -0.00049867 Ry
     internal energy E=F+TS    =     -14.98152548 Ry

     The total energy is F=E-TS. E is the sum of the following terms:
     one-electron contribution =     -10.90381097 Ry
     hartree contribution      =       5.91456399 Ry
     xc contribution           =      -3.91106324 Ry
     ewald contribution        =      -6.08121525 Ry

     convergence has been achieved in   7 iterations

     Writing all to output data dir ./SI.save/
 
     init_run     :      4.57s CPU      5.09s WALL (       1 calls)
     electrons    :     29.18s CPU     31.70s WALL (       1 calls)

     Called by init_run:
     wfcinit      :      4.40s CPU      4.84s WALL (       1 calls)
     wfcinit:atom :      0.06s CPU      0.08s WALL (      30 calls)
     wfcinit:wfcr :      4.13s CPU      4.52s WALL (      30 calls)
     potinit      :      0.08s CPU      0.11s WALL (       1 calls)
     hinit0       :      0.02s CPU      0.04s WALL (       1 calls)

     Called by electrons:
     c_bands      :     24.35s CPU     26.31s WALL (       8 calls)
     sum_band     :      4.32s CPU      4.77s WALL (       8 calls)
     v_of_rho     :      0.48s CPU      0.57s WALL (       8 calls)
     v_h          :      0.02s CPU      0.03s WALL (       8 calls)
     v_xc         :      0.46s CPU      0.53s WALL (       8 calls)
     mix_rho      :      0.05s CPU      0.07s WALL (       8 calls)

     Called by c_bands:
     init_us_2    :      0.78s CPU      0.80s WALL (     510 calls)
     init_us_2:cp :      0.78s CPU      0.80s WALL (     510 calls)
     cegterg      :     22.79s CPU     24.71s WALL (     240 calls)

     Called by sum_band:
     sum_band:wei :      0.01s CPU      0.01s WALL (       8 calls)
     sum_band:loo :      4.22s CPU      4.63s WALL (       8 calls)
     sum_band:buf :      0.03s CPU      0.04s WALL (     240 calls)
     sum_band:ini :      0.39s CPU      0.40s WALL (     240 calls)

     Called by *egterg:
     cdiaghg      :      0.09s CPU      0.11s WALL (     752 calls)
     cegterg:over :      0.65s CPU      0.66s WALL (     542 calls)
     cegterg:upda :      0.18s CPU      0.18s WALL (     542 calls)
     cegterg:last :      0.27s CPU      0.27s WALL (     477 calls)
     h_psi        :     25.23s CPU     27.50s WALL (     812 calls)
     g_psi        :      0.04s CPU      0.04s WALL (     542 calls)

     Called by h_psi:
     h_psi:calbec :      0.49s CPU      0.56s WALL (     812 calls)
     vloc_psi     :     24.20s CPU     26.35s WALL (     812 calls)
     add_vuspsi   :      0.45s CPU      0.46s WALL (     812 calls)

     General routines
     calbec       :      0.49s CPU      0.56s WALL (     812 calls)
     fft          :      0.21s CPU      0.29s WALL (      80 calls)
     ffts         :      0.02s CPU      0.03s WALL (       8 calls)
     fftw         :     25.77s CPU     28.15s WALL (   13830 calls)
 
     Parallel routines
 
     PWSCF        :     33.83s CPU     37.25s WALL

 
   This run was terminated on:  10: 8:15  17Mar2023            

=------------------------------------------------------------------------------=
   JOB DONE.
=------------------------------------------------------------------------------=
