
     Program PWSCF v.7.1 starts on 17Mar2023 at 10: 7:41 

     This program is part of the open-source Quantum ESPRESSO suite
     for quantum simulation of materials; please cite
         "P. Giannozzi et al., J. Phys.:Condens. Matter 21 395502 (2009);
         "P. Giannozzi et al., J. Phys.:Condens. Matter 29 465901 (2017);
         "P. Giannozzi et al., J. Chem. Phys. 152 154105 (2020);
          URL http://www.quantum-espresso.org", 
     in publications or presentations arising from this work. More details at
     http://www.quantum-espresso.org/quote

     Parallel version (MPI), running on     4 processors

     MPI processes distributed on     1 nodes
     376632 MiB available memory on the printing compute node when the environment starts
 
     Waiting for input...
     Reading input from standard input
Warning: card  &IONS ignored
Warning: card  / ignored

     Current dimensions of program PWSCF are:
     Max number of different atomic species (ntypx) = 10
     Max number of k-points (npk) =  40000
     Max angular momentum in pseudopotentials (lmaxx) =  4

     Atomic positions and unit cell read from directory:
     ./SI.save/
     Atomic positions from file used, from input discarded
 
     file Si.pbe-mt_fhi.UPF: wavefunction(s)  4f renormalized
 
     K-points division:     npool     =       2
     R & G space division:  proc/nbgrp/npool/nimage =       2
     Subspace diagonalization in iterative solution of the eigenvalue problem:
     a serial algorithm will be used

 
     Parallelization info
     --------------------
     sticks:   dense  smooth     PW     G-vecs:    dense   smooth      PW
     Min         216     216     63                 2992     2992     482
     Max         217     217     64                 2993     2993     483
     Sum         433     433    127                 5985     5985     965
 
     Using Slab Decomposition
 


     bravais-lattice index     =            2
     lattice parameter (alat)  =      10.2612  a.u.
     unit-cell volume          =     270.1075 (a.u.)^3
     number of atoms/cell      =            2
     number of atomic types    =            1
     number of electrons       =         8.00
     number of Kohn-Sham states=            8
     kinetic-energy cutoff     =      30.0000  Ry
     charge density cutoff     =     120.0000  Ry
     Exchange-correlation= PBE
                           (   1   4   3   4   0   0   0)

     celldm(1)=  10.261217  celldm(2)=   0.000000  celldm(3)=   0.000000
     celldm(4)=   0.000000  celldm(5)=   0.000000  celldm(6)=   0.000000

     crystal axes: (cart. coord. in units of alat)
               a(1) = (  -0.500000   0.000000   0.500000 )  
               a(2) = (   0.000000   0.500000   0.500000 )  
               a(3) = (  -0.500000   0.500000   0.000000 )  

     reciprocal axes: (cart. coord. in units 2 pi/alat)
               b(1) = ( -1.000000 -1.000000  1.000000 )  
               b(2) = (  1.000000  1.000000  1.000000 )  
               b(3) = ( -1.000000  1.000000 -1.000000 )  


     PseudoPot. # 1 for Si read from file:
     ./Si.pbe-mt_fhi.UPF
     MD5 check sum: 259057c2adf9952f9ced37ae3d9e311d
     Pseudo is Norm-conserving, Zval =  4.0
     Generated using FHI98PP, converted with fhi2upf.x v.5.0.2
     Using radial grid of  495 points,  3 beta functions with: 
                l(1) =   0
                l(2) =   1
                l(3) =   3

     atomic species   valence    mass     pseudopotential
        Si             4.00    28.08600     Si( 1.00)

     48 Sym. Ops., with inversion, found (24 have fractional translation)


                                    s                        frac. trans.

      isym =  1     identity                                     

 cryst.   s( 1) = (     1          0          0      )
                  (     0          1          0      )
                  (     0          0          1      )

 cart.    s( 1) = (  1.0000000  0.0000000 -0.0000000 )
                  (  0.0000000  1.0000000  0.0000000 )
                  (  0.0000000  0.0000000  1.0000000 )


      isym =  2     180 deg rotation - cart. axis [0,0,1]        

 cryst.   s( 2) = (     0          1         -1      )
                  (     1          0         -1      )
                  (     0          0         -1      )

 cart.    s( 2) = ( -1.0000000 -0.0000000 -0.0000000 )
                  ( -0.0000000 -1.0000000  0.0000000 )
                  ( -0.0000000 -0.0000000  1.0000000 )


      isym =  3     180 deg rotation - cart. axis [0,1,0]        

 cryst.   s( 3) = (    -1          0          0      )
                  (    -1          0          1      )
                  (    -1          1          0      )

 cart.    s( 3) = ( -1.0000000  0.0000000  0.0000000 )
                  ( -0.0000000  1.0000000 -0.0000000 )
                  ( -0.0000000  0.0000000 -1.0000000 )


      isym =  4     180 deg rotation - cart. axis [1,0,0]        

 cryst.   s( 4) = (     0         -1          1      )
                  (     0         -1          0      )
                  (     1         -1          0      )

 cart.    s( 4) = (  1.0000000 -0.0000000  0.0000000 )
                  (  0.0000000 -1.0000000 -0.0000000 )
                  (  0.0000000 -0.0000000 -1.0000000 )


      isym =  5     180 deg rotation - cart. axis [1,1,0]        

 cryst.   s( 5) = (     0         -1          0      )    f =( -0.2500000 )
                  (    -1          0          0      )       ( -0.2500000 )
                  (     0          0         -1      )       ( -0.2500000 )

 cart.    s( 5) = (  0.0000000  1.0000000  0.0000000 )    f =(  0.2500000 )
                  (  1.0000000  0.0000000 -0.0000000 )       ( -0.2500000 )
                  (  0.0000000  0.0000000 -1.0000000 )       ( -0.2500000 )


      isym =  6     180 deg rotation - cart. axis [1,-1,0]       

 cryst.   s( 6) = (    -1          0          1      )    f =( -0.2500000 )
                  (     0         -1          1      )       ( -0.2500000 )
                  (     0          0          1      )       ( -0.2500000 )

 cart.    s( 6) = ( -0.0000000 -1.0000000  0.0000000 )    f =(  0.2500000 )
                  ( -1.0000000 -0.0000000 -0.0000000 )       ( -0.2500000 )
                  ( -0.0000000 -0.0000000 -1.0000000 )       ( -0.2500000 )


      isym =  7      90 deg rotation - cart. axis [0,0,-1]       

 cryst.   s( 7) = (     0          1          0      )    f =( -0.2500000 )
                  (     0          1         -1      )       ( -0.2500000 )
                  (    -1          1          0      )       ( -0.2500000 )

 cart.    s( 7) = ( -0.0000000  1.0000000 -0.0000000 )    f =(  0.2500000 )
                  ( -1.0000000  0.0000000  0.0000000 )       ( -0.2500000 )
                  ( -0.0000000  0.0000000  1.0000000 )       ( -0.2500000 )


      isym =  8      90 deg rotation - cart. axis [0,0,1]        

 cryst.   s( 8) = (     1          0         -1      )    f =( -0.2500000 )
                  (     1          0          0      )       ( -0.2500000 )
                  (     1         -1          0      )       ( -0.2500000 )

 cart.    s( 8) = (  0.0000000 -1.0000000 -0.0000000 )    f =(  0.2500000 )
                  (  1.0000000 -0.0000000  0.0000000 )       ( -0.2500000 )
                  (  0.0000000 -0.0000000  1.0000000 )       ( -0.2500000 )


      isym =  9     180 deg rotation - cart. axis [1,0,1]        

 cryst.   s( 9) = (    -1          0          0      )    f =( -0.2500000 )
                  (     0          0         -1      )       ( -0.2500000 )
                  (     0         -1          0      )       ( -0.2500000 )

 cart.    s( 9) = ( -0.0000000 -0.0000000  1.0000000 )    f =(  0.2500000 )
                  (  0.0000000 -1.0000000  0.0000000 )       ( -0.2500000 )
                  (  1.0000000 -0.0000000  0.0000000 )       ( -0.2500000 )


      isym = 10     180 deg rotation - cart. axis [-1,0,1]       

 cryst.   s(10) = (     1          0          0      )    f =( -0.2500000 )
                  (     1         -1          0      )       ( -0.2500000 )
                  (     1          0         -1      )       ( -0.2500000 )

 cart.    s(10) = (  0.0000000 -0.0000000 -1.0000000 )    f =(  0.2500000 )
                  ( -0.0000000 -1.0000000 -0.0000000 )       ( -0.2500000 )
                  ( -1.0000000 -0.0000000 -0.0000000 )       ( -0.2500000 )


      isym = 11      90 deg rotation - cart. axis [0,1,0]        

 cryst.   s(11) = (     0          1         -1      )    f =( -0.2500000 )
                  (    -1          1          0      )       ( -0.2500000 )
                  (     0          1          0      )       ( -0.2500000 )

 cart.    s(11) = (  0.0000000  0.0000000  1.0000000 )    f =(  0.2500000 )
                  ( -0.0000000  1.0000000  0.0000000 )       ( -0.2500000 )
                  ( -1.0000000  0.0000000  0.0000000 )       ( -0.2500000 )


      isym = 12      90 deg rotation - cart. axis [0,-1,0]       

 cryst.   s(12) = (     0         -1          1      )    f =( -0.2500000 )
                  (     0          0          1      )       ( -0.2500000 )
                  (    -1          0          1      )       ( -0.2500000 )

 cart.    s(12) = ( -0.0000000  0.0000000 -1.0000000 )    f =(  0.2500000 )
                  (  0.0000000  1.0000000 -0.0000000 )       ( -0.2500000 )
                  (  1.0000000  0.0000000 -0.0000000 )       ( -0.2500000 )


      isym = 13     180 deg rotation - cart. axis [0,1,1]        

 cryst.   s(13) = (    -1          1          0      )    f =( -0.2500000 )
                  (     0          1          0      )       ( -0.2500000 )
                  (     0          1         -1      )       ( -0.2500000 )

 cart.    s(13) = ( -1.0000000 -0.0000000  0.0000000 )    f =(  0.2500000 )
                  ( -0.0000000  0.0000000  1.0000000 )       ( -0.2500000 )
                  ( -0.0000000  1.0000000  0.0000000 )       ( -0.2500000 )


      isym = 14     180 deg rotation - cart. axis [0,1,-1]       

 cryst.   s(14) = (     0          0         -1      )    f =( -0.2500000 )
                  (     0         -1          0      )       ( -0.2500000 )
                  (    -1          0          0      )       ( -0.2500000 )

 cart.    s(14) = ( -1.0000000  0.0000000 -0.0000000 )    f =(  0.2500000 )
                  ( -0.0000000 -0.0000000 -1.0000000 )       ( -0.2500000 )
                  ( -0.0000000 -1.0000000 -0.0000000 )       ( -0.2500000 )


      isym = 15      90 deg rotation - cart. axis [-1,0,0]       

 cryst.   s(15) = (     0          0          1      )    f =( -0.2500000 )
                  (    -1          0          1      )       ( -0.2500000 )
                  (     0         -1          1      )       ( -0.2500000 )

 cart.    s(15) = (  1.0000000  0.0000000  0.0000000 )    f =(  0.2500000 )
                  (  0.0000000 -0.0000000  1.0000000 )       ( -0.2500000 )
                  (  0.0000000 -1.0000000  0.0000000 )       ( -0.2500000 )


      isym = 16      90 deg rotation - cart. axis [1,0,0]        

 cryst.   s(16) = (     1         -1          0      )    f =( -0.2500000 )
                  (     1          0         -1      )       ( -0.2500000 )
                  (     1          0          0      )       ( -0.2500000 )

 cart.    s(16) = (  1.0000000 -0.0000000 -0.0000000 )    f =(  0.2500000 )
                  (  0.0000000  0.0000000 -1.0000000 )       ( -0.2500000 )
                  (  0.0000000  1.0000000 -0.0000000 )       ( -0.2500000 )


      isym = 17     120 deg rotation - cart. axis [-1,-1,-1]     

 cryst.   s(17) = (    -1          0          1      )
                  (    -1          1          0      )
                  (    -1          0          0      )

 cart.    s(17) = ( -0.0000000  1.0000000  0.0000000 )
                  (  0.0000000  0.0000000  1.0000000 )
                  (  1.0000000  0.0000000  0.0000000 )


      isym = 18     120 deg rotation - cart. axis [-1,1,1]       

 cryst.   s(18) = (     0          1          0      )
                  (     0          0          1      )
                  (     1          0          0      )

 cart.    s(18) = (  0.0000000 -1.0000000  0.0000000 )
                  ( -0.0000000 -0.0000000  1.0000000 )
                  ( -1.0000000 -0.0000000  0.0000000 )


      isym = 19     120 deg rotation - cart. axis [1,1,-1]       

 cryst.   s(19) = (     1          0         -1      )
                  (     0          0         -1      )
                  (     0          1         -1      )

 cart.    s(19) = (  0.0000000  1.0000000 -0.0000000 )
                  ( -0.0000000  0.0000000 -1.0000000 )
                  ( -1.0000000  0.0000000 -0.0000000 )


      isym = 20     120 deg rotation - cart. axis [1,-1,1]       

 cryst.   s(20) = (     0         -1          0      )
                  (     1         -1          0      )
                  (     0         -1          1      )

 cart.    s(20) = ( -0.0000000 -1.0000000 -0.0000000 )
                  (  0.0000000 -0.0000000 -1.0000000 )
                  (  1.0000000 -0.0000000 -0.0000000 )


      isym = 21     120 deg rotation - cart. axis [1,1,1]        

 cryst.   s(21) = (     0          0         -1      )
                  (     0          1         -1      )
                  (     1          0         -1      )

 cart.    s(21) = (  0.0000000 -0.0000000  1.0000000 )
                  (  1.0000000  0.0000000  0.0000000 )
                  (  0.0000000  1.0000000  0.0000000 )


      isym = 22     120 deg rotation - cart. axis [-1,1,-1]      

 cryst.   s(22) = (    -1          1          0      )
                  (    -1          0          0      )
                  (    -1          0          1      )

 cart.    s(22) = ( -0.0000000  0.0000000  1.0000000 )
                  ( -1.0000000 -0.0000000  0.0000000 )
                  ( -0.0000000 -1.0000000  0.0000000 )


      isym = 23     120 deg rotation - cart. axis [1,-1,-1]      

 cryst.   s(23) = (     0          0          1      )
                  (     1          0          0      )
                  (     0          1          0      )

 cart.    s(23) = ( -0.0000000 -0.0000000 -1.0000000 )
                  ( -1.0000000  0.0000000 -0.0000000 )
                  ( -0.0000000  1.0000000 -0.0000000 )


      isym = 24     120 deg rotation - cart. axis [-1,-1,1]      

 cryst.   s(24) = (     1         -1          0      )
                  (     0         -1          1      )
                  (     0         -1          0      )

 cart.    s(24) = (  0.0000000  0.0000000 -1.0000000 )
                  (  1.0000000 -0.0000000 -0.0000000 )
                  (  0.0000000 -1.0000000 -0.0000000 )


      isym = 25     inversion                                    

 cryst.   s(25) = (    -1          0          0      )    f =( -0.2500000 )
                  (     0         -1          0      )       ( -0.2500000 )
                  (     0          0         -1      )       ( -0.2500000 )

 cart.    s(25) = ( -1.0000000 -0.0000000  0.0000000 )    f =(  0.2500000 )
                  ( -0.0000000 -1.0000000 -0.0000000 )       ( -0.2500000 )
                  ( -0.0000000 -0.0000000 -1.0000000 )       ( -0.2500000 )


      isym = 26     inv. 180 deg rotation - cart. axis [0,0,1]   

 cryst.   s(26) = (     0         -1          1      )    f =( -0.2500000 )
                  (    -1          0          1      )       ( -0.2500000 )
                  (     0          0          1      )       ( -0.2500000 )

 cart.    s(26) = (  1.0000000  0.0000000  0.0000000 )    f =(  0.2500000 )
                  (  0.0000000  1.0000000 -0.0000000 )       ( -0.2500000 )
                  (  0.0000000  0.0000000 -1.0000000 )       ( -0.2500000 )


      isym = 27     inv. 180 deg rotation - cart. axis [0,1,0]   

 cryst.   s(27) = (     1          0          0      )    f =( -0.2500000 )
                  (     1          0         -1      )       ( -0.2500000 )
                  (     1         -1          0      )       ( -0.2500000 )

 cart.    s(27) = (  1.0000000 -0.0000000 -0.0000000 )    f =(  0.2500000 )
                  (  0.0000000 -1.0000000  0.0000000 )       ( -0.2500000 )
                  (  0.0000000 -0.0000000  1.0000000 )       ( -0.2500000 )


      isym = 28     inv. 180 deg rotation - cart. axis [1,0,0]   

 cryst.   s(28) = (     0          1         -1      )    f =( -0.2500000 )
                  (     0          1          0      )       ( -0.2500000 )
                  (    -1          1          0      )       ( -0.2500000 )

 cart.    s(28) = ( -1.0000000  0.0000000 -0.0000000 )    f =(  0.2500000 )
                  ( -0.0000000  1.0000000  0.0000000 )       ( -0.2500000 )
                  ( -0.0000000  0.0000000  1.0000000 )       ( -0.2500000 )


      isym = 29     inv. 180 deg rotation - cart. axis [1,1,0]   

 cryst.   s(29) = (     0          1          0      )
                  (     1          0          0      )
                  (     0          0          1      )

 cart.    s(29) = ( -0.0000000 -1.0000000 -0.0000000 )
                  ( -1.0000000 -0.0000000  0.0000000 )
                  ( -0.0000000 -0.0000000  1.0000000 )


      isym = 30     inv. 180 deg rotation - cart. axis [1,-1,0]  

 cryst.   s(30) = (     1          0         -1      )
                  (     0          1         -1      )
                  (     0          0         -1      )

 cart.    s(30) = (  0.0000000  1.0000000 -0.0000000 )
                  (  1.0000000  0.0000000  0.0000000 )
                  (  0.0000000  0.0000000  1.0000000 )


      isym = 31     inv.  90 deg rotation - cart. axis [0,0,-1]  

 cryst.   s(31) = (     0         -1          0      )
                  (     0         -1          1      )
                  (     1         -1          0      )

 cart.    s(31) = (  0.0000000 -1.0000000  0.0000000 )
                  (  1.0000000 -0.0000000 -0.0000000 )
                  (  0.0000000 -0.0000000 -1.0000000 )


      isym = 32     inv.  90 deg rotation - cart. axis [0,0,1]   

 cryst.   s(32) = (    -1          0          1      )
                  (    -1          0          0      )
                  (    -1          1          0      )

 cart.    s(32) = ( -0.0000000  1.0000000  0.0000000 )
                  ( -1.0000000  0.0000000 -0.0000000 )
                  ( -0.0000000  0.0000000 -1.0000000 )


      isym = 33     inv. 180 deg rotation - cart. axis [1,0,1]   

 cryst.   s(33) = (     1          0          0      )
                  (     0          0          1      )
                  (     0          1          0      )

 cart.    s(33) = (  0.0000000  0.0000000 -1.0000000 )
                  ( -0.0000000  1.0000000 -0.0000000 )
                  ( -1.0000000  0.0000000 -0.0000000 )


      isym = 34     inv. 180 deg rotation - cart. axis [-1,0,1]  

 cryst.   s(34) = (    -1          0          0      )
                  (    -1          1          0      )
                  (    -1          0          1      )

 cart.    s(34) = ( -0.0000000  0.0000000  1.0000000 )
                  (  0.0000000  1.0000000  0.0000000 )
                  (  1.0000000  0.0000000  0.0000000 )


      isym = 35     inv.  90 deg rotation - cart. axis [0,1,0]   

 cryst.   s(35) = (     0         -1          1      )
                  (     1         -1          0      )
                  (     0         -1          0      )

 cart.    s(35) = ( -0.0000000 -0.0000000 -1.0000000 )
                  (  0.0000000 -1.0000000 -0.0000000 )
                  (  1.0000000 -0.0000000 -0.0000000 )


      isym = 36     inv.  90 deg rotation - cart. axis [0,-1,0]  

 cryst.   s(36) = (     0          1         -1      )
                  (     0          0         -1      )
                  (     1          0         -1      )

 cart.    s(36) = (  0.0000000 -0.0000000  1.0000000 )
                  ( -0.0000000 -1.0000000  0.0000000 )
                  ( -1.0000000 -0.0000000  0.0000000 )


      isym = 37     inv. 180 deg rotation - cart. axis [0,1,1]   

 cryst.   s(37) = (     1         -1          0      )
                  (     0         -1          0      )
                  (     0         -1          1      )

 cart.    s(37) = (  1.0000000  0.0000000 -0.0000000 )
                  (  0.0000000 -0.0000000 -1.0000000 )
                  (  0.0000000 -1.0000000 -0.0000000 )


      isym = 38     inv. 180 deg rotation - cart. axis [0,1,-1]  

 cryst.   s(38) = (     0          0          1      )
                  (     0          1          0      )
                  (     1          0          0      )

 cart.    s(38) = (  1.0000000 -0.0000000  0.0000000 )
                  (  0.0000000  0.0000000  1.0000000 )
                  (  0.0000000  1.0000000  0.0000000 )


      isym = 39     inv.  90 deg rotation - cart. axis [-1,0,0]  

 cryst.   s(39) = (     0          0         -1      )
                  (     1          0         -1      )
                  (     0          1         -1      )

 cart.    s(39) = ( -1.0000000 -0.0000000 -0.0000000 )
                  ( -0.0000000  0.0000000 -1.0000000 )
                  ( -0.0000000  1.0000000 -0.0000000 )


      isym = 40     inv.  90 deg rotation - cart. axis [1,0,0]   

 cryst.   s(40) = (    -1          1          0      )
                  (    -1          0          1      )
                  (    -1          0          0      )

 cart.    s(40) = ( -1.0000000  0.0000000  0.0000000 )
                  ( -0.0000000 -0.0000000  1.0000000 )
                  ( -0.0000000 -1.0000000  0.0000000 )


      isym = 41     inv. 120 deg rotation - cart. axis [-1,-1,-1]

 cryst.   s(41) = (     1          0         -1      )    f =( -0.2500000 )
                  (     1         -1          0      )       ( -0.2500000 )
                  (     1          0          0      )       ( -0.2500000 )

 cart.    s(41) = (  0.0000000 -1.0000000 -0.0000000 )    f =(  0.2500000 )
                  ( -0.0000000 -0.0000000 -1.0000000 )       ( -0.2500000 )
                  ( -1.0000000 -0.0000000 -0.0000000 )       ( -0.2500000 )


      isym = 42     inv. 120 deg rotation - cart. axis [-1,1,1]  

 cryst.   s(42) = (     0         -1          0      )    f =( -0.2500000 )
                  (     0          0         -1      )       ( -0.2500000 )
                  (    -1          0          0      )       ( -0.2500000 )

 cart.    s(42) = ( -0.0000000  1.0000000 -0.0000000 )    f =(  0.2500000 )
                  (  0.0000000  0.0000000 -1.0000000 )       ( -0.2500000 )
                  (  1.0000000  0.0000000 -0.0000000 )       ( -0.2500000 )


      isym = 43     inv. 120 deg rotation - cart. axis [1,1,-1]  

 cryst.   s(43) = (    -1          0          1      )    f =( -0.2500000 )
                  (     0          0          1      )       ( -0.2500000 )
                  (     0         -1          1      )       ( -0.2500000 )

 cart.    s(43) = ( -0.0000000 -1.0000000  0.0000000 )    f =(  0.2500000 )
                  (  0.0000000 -0.0000000  1.0000000 )       ( -0.2500000 )
                  (  1.0000000 -0.0000000  0.0000000 )       ( -0.2500000 )


      isym = 44     inv. 120 deg rotation - cart. axis [1,-1,1]  

 cryst.   s(44) = (     0          1          0      )    f =( -0.2500000 )
                  (    -1          1          0      )       ( -0.2500000 )
                  (     0          1         -1      )       ( -0.2500000 )

 cart.    s(44) = (  0.0000000  1.0000000  0.0000000 )    f =(  0.2500000 )
                  ( -0.0000000  0.0000000  1.0000000 )       ( -0.2500000 )
                  ( -1.0000000  0.0000000  0.0000000 )       ( -0.2500000 )


      isym = 45     inv. 120 deg rotation - cart. axis [1,1,1]   

 cryst.   s(45) = (     0          0          1      )    f =( -0.2500000 )
                  (     0         -1          1      )       ( -0.2500000 )
                  (    -1          0          1      )       ( -0.2500000 )

 cart.    s(45) = ( -0.0000000  0.0000000 -1.0000000 )    f =(  0.2500000 )
                  ( -1.0000000 -0.0000000 -0.0000000 )       ( -0.2500000 )
                  ( -0.0000000 -1.0000000 -0.0000000 )       ( -0.2500000 )


      isym = 46     inv. 120 deg rotation - cart. axis [-1,1,-1] 

 cryst.   s(46) = (     1         -1          0      )    f =( -0.2500000 )
                  (     1          0          0      )       ( -0.2500000 )
                  (     1          0         -1      )       ( -0.2500000 )

 cart.    s(46) = (  0.0000000 -0.0000000 -1.0000000 )    f =(  0.2500000 )
                  (  1.0000000  0.0000000 -0.0000000 )       ( -0.2500000 )
                  (  0.0000000  1.0000000 -0.0000000 )       ( -0.2500000 )


      isym = 47     inv. 120 deg rotation - cart. axis [1,-1,-1] 

 cryst.   s(47) = (     0          0         -1      )    f =( -0.2500000 )
                  (    -1          0          0      )       ( -0.2500000 )
                  (     0         -1          0      )       ( -0.2500000 )

 cart.    s(47) = (  0.0000000  0.0000000  1.0000000 )    f =(  0.2500000 )
                  (  1.0000000 -0.0000000  0.0000000 )       ( -0.2500000 )
                  (  0.0000000 -1.0000000  0.0000000 )       ( -0.2500000 )


      isym = 48     inv. 120 deg rotation - cart. axis [-1,-1,1] 

 cryst.   s(48) = (    -1          1          0      )    f =( -0.2500000 )
                  (     0          1         -1      )       ( -0.2500000 )
                  (     0          1          0      )       ( -0.2500000 )

 cart.    s(48) = ( -0.0000000 -0.0000000  1.0000000 )    f =(  0.2500000 )
                  ( -1.0000000  0.0000000  0.0000000 )       ( -0.2500000 )
                  ( -0.0000000  1.0000000  0.0000000 )       ( -0.2500000 )


     point group O_h (m-3m) 
     there are 10 classes
     the character table:

       E     8C3   3C2   6C4   6C2'  i     8S6   3s_h  6S4   6s_d 
A_1g   1.00  1.00  1.00  1.00  1.00  1.00  1.00  1.00  1.00  1.00
A_2g   1.00  1.00  1.00 -1.00 -1.00  1.00  1.00  1.00 -1.00 -1.00
E_g    2.00 -1.00  2.00  0.00  0.00  2.00 -1.00  2.00  0.00  0.00
T_1g   3.00  0.00 -1.00  1.00 -1.00  3.00  0.00 -1.00  1.00 -1.00
T_2g   3.00  0.00 -1.00 -1.00  1.00  3.00  0.00 -1.00 -1.00  1.00
A_1u   1.00  1.00  1.00  1.00  1.00 -1.00 -1.00 -1.00 -1.00 -1.00
A_2u   1.00  1.00  1.00 -1.00 -1.00 -1.00 -1.00 -1.00  1.00  1.00
E_u    2.00 -1.00  2.00  0.00  0.00 -2.00  1.00 -2.00  0.00  0.00
T_1u   3.00  0.00 -1.00  1.00 -1.00 -3.00  0.00  1.00 -1.00  1.00
T_2u   3.00  0.00 -1.00 -1.00  1.00 -3.00  0.00  1.00  1.00 -1.00

     the symmetry operations in each class and the name of the first element:

     E        1
          identity                                               
     8C3     17   19   20   18   24   21   22   23
          120 deg rotation - cart. axis [-1,-1,-1]               
     3C2      2    4    3
          180 deg rotation - cart. axis [0,0,1]                  
     6C4      7    8   15   16   12   11
           90 deg rotation - cart. axis [0,0,-1]                 
     6C2'     5    6   14   13   10    9
          180 deg rotation - cart. axis [1,1,0]                  
     i       25
          inversion                                              
     8S6     41   43   44   42   48   45   46   47
          inv. 120 deg rotation - cart. axis [-1,-1,-1]          
     3s_h    26   28   27
          inv. 180 deg rotation - cart. axis [0,0,1]             
     6S4     31   32   39   40   36   35
          inv.  90 deg rotation - cart. axis [0,0,-1]            
     6s_d    29   30   38   37   34   33
          inv. 180 deg rotation - cart. axis [1,1,0]             

   Cartesian axes

     site n.     atom                  positions (alat units)
         1           Si  tau(   1) = (   0.0000000   0.0000000   0.0000000  )
         2           Si  tau(   2) = (  -0.2500000   0.2500000   0.2500000  )

   Crystallographic axes

     site n.     atom                  positions (cryst. coord.)
         1           Si  tau(   1) = (  0.0000000  0.0000000  0.0000000  )
         2           Si  tau(   2) = (  0.2500000  0.2500000  0.2500000  )

     number of k points=   100  Gaussian smearing, width (Ry)=  0.0010
                       cart. coord. in units 2pi/alat
        k(    1) = (  -0.5000000   0.5000000   0.5000000), wk =   0.0200000
        k(    2) = (  -0.4888889   0.4888889   0.4888889), wk =   0.0200000
        k(    3) = (  -0.4777778   0.4777778   0.4777778), wk =   0.0200000
        k(    4) = (  -0.4666667   0.4666667   0.4666667), wk =   0.0200000
        k(    5) = (  -0.4555556   0.4555556   0.4555556), wk =   0.0200000
        k(    6) = (  -0.4444444   0.4444444   0.4444444), wk =   0.0200000
        k(    7) = (  -0.4333333   0.4333333   0.4333333), wk =   0.0200000
        k(    8) = (  -0.4222222   0.4222222   0.4222222), wk =   0.0200000
        k(    9) = (  -0.4111111   0.4111111   0.4111111), wk =   0.0200000
        k(   10) = (  -0.4000000   0.4000000   0.4000000), wk =   0.0200000
        k(   11) = (  -0.3888889   0.3888889   0.3888889), wk =   0.0200000
        k(   12) = (  -0.3777778   0.3777778   0.3777778), wk =   0.0200000
        k(   13) = (  -0.3666667   0.3666667   0.3666667), wk =   0.0200000
        k(   14) = (  -0.3555556   0.3555556   0.3555556), wk =   0.0200000
        k(   15) = (  -0.3444444   0.3444444   0.3444444), wk =   0.0200000
        k(   16) = (  -0.3333333   0.3333333   0.3333333), wk =   0.0200000
        k(   17) = (  -0.3222222   0.3222222   0.3222222), wk =   0.0200000
        k(   18) = (  -0.3111111   0.3111111   0.3111111), wk =   0.0200000
        k(   19) = (  -0.3000000   0.3000000   0.3000000), wk =   0.0200000
        k(   20) = (  -0.2888889   0.2888889   0.2888889), wk =   0.0200000
        k(   21) = (  -0.2777778   0.2777778   0.2777778), wk =   0.0200000
        k(   22) = (  -0.2666667   0.2666667   0.2666667), wk =   0.0200000
        k(   23) = (  -0.2555556   0.2555556   0.2555556), wk =   0.0200000
        k(   24) = (  -0.2444444   0.2444444   0.2444444), wk =   0.0200000
        k(   25) = (  -0.2333333   0.2333333   0.2333333), wk =   0.0200000
        k(   26) = (  -0.2222222   0.2222222   0.2222222), wk =   0.0200000
        k(   27) = (  -0.2111111   0.2111111   0.2111111), wk =   0.0200000
        k(   28) = (  -0.2000000   0.2000000   0.2000000), wk =   0.0200000
        k(   29) = (  -0.1888889   0.1888889   0.1888889), wk =   0.0200000
        k(   30) = (  -0.1777778   0.1777778   0.1777778), wk =   0.0200000
        k(   31) = (  -0.1666667   0.1666667   0.1666667), wk =   0.0200000
        k(   32) = (  -0.1555556   0.1555556   0.1555556), wk =   0.0200000
        k(   33) = (  -0.1444444   0.1444444   0.1444444), wk =   0.0200000
        k(   34) = (  -0.1333333   0.1333333   0.1333333), wk =   0.0200000
        k(   35) = (  -0.1222222   0.1222222   0.1222222), wk =   0.0200000
        k(   36) = (  -0.1111111   0.1111111   0.1111111), wk =   0.0200000
        k(   37) = (  -0.1000000   0.1000000   0.1000000), wk =   0.0200000
        k(   38) = (  -0.0888889   0.0888889   0.0888889), wk =   0.0200000
        k(   39) = (  -0.0777778   0.0777778   0.0777778), wk =   0.0200000
        k(   40) = (  -0.0666667   0.0666667   0.0666667), wk =   0.0200000
        k(   41) = (  -0.0555556   0.0555556   0.0555556), wk =   0.0200000
        k(   42) = (  -0.0444444   0.0444444   0.0444444), wk =   0.0200000
        k(   43) = (  -0.0333333   0.0333333   0.0333333), wk =   0.0200000
        k(   44) = (  -0.0222222   0.0222222   0.0222222), wk =   0.0200000
        k(   45) = (  -0.0111111   0.0111111   0.0111111), wk =   0.0200000
        k(   46) = (   0.0000000   0.0000000   0.0000000), wk =   0.0200000
        k(   47) = (  -0.0185185   0.0000000  -0.0000000), wk =   0.0200000
        k(   48) = (  -0.0370370   0.0000000  -0.0000000), wk =   0.0200000
        k(   49) = (  -0.0555556   0.0000000  -0.0000000), wk =   0.0200000
        k(   50) = (  -0.0740741   0.0000000  -0.0000000), wk =   0.0200000
        k(   51) = (  -0.0925926  -0.0000000   0.0000000), wk =   0.0200000
        k(   52) = (  -0.1111111   0.0000000  -0.0000000), wk =   0.0200000
        k(   53) = (  -0.1296296  -0.0000000   0.0000000), wk =   0.0200000
        k(   54) = (  -0.1481481   0.0000000  -0.0000000), wk =   0.0200000
        k(   55) = (  -0.1666667   0.0000000  -0.0000000), wk =   0.0200000
        k(   56) = (  -0.1851852  -0.0000000   0.0000000), wk =   0.0200000
        k(   57) = (  -0.2037037  -0.0000000   0.0000000), wk =   0.0200000
        k(   58) = (  -0.2222222   0.0000000  -0.0000000), wk =   0.0200000
        k(   59) = (  -0.2407407   0.0000000  -0.0000000), wk =   0.0200000
        k(   60) = (  -0.2592593  -0.0000000   0.0000000), wk =   0.0200000
        k(   61) = (  -0.2777778   0.0000000  -0.0000000), wk =   0.0200000
        k(   62) = (  -0.2962963   0.0000000  -0.0000000), wk =   0.0200000
        k(   63) = (  -0.3148148  -0.0000000   0.0000000), wk =   0.0200000
        k(   64) = (  -0.3333333   0.0000000  -0.0000000), wk =   0.0200000
        k(   65) = (  -0.3518519  -0.0000000   0.0000000), wk =   0.0200000
        k(   66) = (  -0.3703704  -0.0000000   0.0000000), wk =   0.0200000
        k(   67) = (  -0.3888889   0.0000000  -0.0000000), wk =   0.0200000
        k(   68) = (  -0.4074074  -0.0000000   0.0000000), wk =   0.0200000
        k(   69) = (  -0.4259259   0.0000000  -0.0000000), wk =   0.0200000
        k(   70) = (  -0.4444444   0.0000000  -0.0000000), wk =   0.0200000
        k(   71) = (  -0.4629630  -0.0000000   0.0000000), wk =   0.0200000
        k(   72) = (  -0.4814815   0.0000000  -0.0000000), wk =   0.0200000
        k(   73) = (  -0.5000000   0.0000000   0.0000000), wk =   0.0200000
        k(   74) = (  -0.5185185  -0.0000000   0.0000000), wk =   0.0200000
        k(   75) = (  -0.5370370  -0.0000000   0.0000000), wk =   0.0200000
        k(   76) = (  -0.5555556   0.0000000  -0.0000000), wk =   0.0200000
        k(   77) = (  -0.5740741   0.0000000  -0.0000000), wk =   0.0200000
        k(   78) = (  -0.5925926   0.0000000  -0.0000000), wk =   0.0200000
        k(   79) = (  -0.6111111  -0.0000000   0.0000000), wk =   0.0200000
        k(   80) = (  -0.6296296  -0.0000000   0.0000000), wk =   0.0200000
        k(   81) = (  -0.6481481  -0.0000000   0.0000000), wk =   0.0200000
        k(   82) = (  -0.6666667   0.0000000  -0.0000000), wk =   0.0200000
        k(   83) = (  -0.6851852   0.0000000  -0.0000000), wk =   0.0200000
        k(   84) = (  -0.7037037  -0.0000000   0.0000000), wk =   0.0200000
        k(   85) = (  -0.7222222  -0.0000000   0.0000000), wk =   0.0200000
        k(   86) = (  -0.7407407  -0.0000000   0.0000000), wk =   0.0200000
        k(   87) = (  -0.7592593   0.0000000  -0.0000000), wk =   0.0200000
        k(   88) = (  -0.7777778   0.0000000  -0.0000000), wk =   0.0200000
        k(   89) = (  -0.7962963   0.0000000  -0.0000000), wk =   0.0200000
        k(   90) = (  -0.8148148  -0.0000000   0.0000000), wk =   0.0200000
        k(   91) = (  -0.8333333  -0.0000000   0.0000000), wk =   0.0200000
        k(   92) = (  -0.8518519   0.0000000  -0.0000000), wk =   0.0200000
        k(   93) = (  -0.8703704   0.0000000  -0.0000000), wk =   0.0200000
        k(   94) = (  -0.8888889   0.0000000  -0.0000000), wk =   0.0200000
        k(   95) = (  -0.9074074  -0.0000000   0.0000000), wk =   0.0200000
        k(   96) = (  -0.9259259  -0.0000000   0.0000000), wk =   0.0200000
        k(   97) = (  -0.9444444  -0.0000000   0.0000000), wk =   0.0200000
        k(   98) = (  -0.9629630   0.0000000  -0.0000000), wk =   0.0200000
        k(   99) = (  -0.9814815   0.0000000  -0.0000000), wk =   0.0200000
        k(  100) = (  -1.0000000   0.0000000   0.0000000), wk =   0.0200000

                       cryst. coord.
        k(    1) = (   0.5000000   0.5000000   0.5000000), wk =   0.0200000
        k(    2) = (   0.4888889   0.4888889   0.4888889), wk =   0.0200000
        k(    3) = (   0.4777778   0.4777778   0.4777778), wk =   0.0200000
        k(    4) = (   0.4666667   0.4666667   0.4666667), wk =   0.0200000
        k(    5) = (   0.4555556   0.4555556   0.4555556), wk =   0.0200000
        k(    6) = (   0.4444444   0.4444444   0.4444444), wk =   0.0200000
        k(    7) = (   0.4333333   0.4333333   0.4333333), wk =   0.0200000
        k(    8) = (   0.4222222   0.4222222   0.4222222), wk =   0.0200000
        k(    9) = (   0.4111111   0.4111111   0.4111111), wk =   0.0200000
        k(   10) = (   0.4000000   0.4000000   0.4000000), wk =   0.0200000
        k(   11) = (   0.3888889   0.3888889   0.3888889), wk =   0.0200000
        k(   12) = (   0.3777778   0.3777778   0.3777778), wk =   0.0200000
        k(   13) = (   0.3666667   0.3666667   0.3666667), wk =   0.0200000
        k(   14) = (   0.3555556   0.3555556   0.3555556), wk =   0.0200000
        k(   15) = (   0.3444444   0.3444444   0.3444444), wk =   0.0200000
        k(   16) = (   0.3333333   0.3333333   0.3333333), wk =   0.0200000
        k(   17) = (   0.3222222   0.3222222   0.3222222), wk =   0.0200000
        k(   18) = (   0.3111111   0.3111111   0.3111111), wk =   0.0200000
        k(   19) = (   0.3000000   0.3000000   0.3000000), wk =   0.0200000
        k(   20) = (   0.2888889   0.2888889   0.2888889), wk =   0.0200000
        k(   21) = (   0.2777778   0.2777778   0.2777778), wk =   0.0200000
        k(   22) = (   0.2666667   0.2666667   0.2666667), wk =   0.0200000
        k(   23) = (   0.2555556   0.2555556   0.2555556), wk =   0.0200000
        k(   24) = (   0.2444444   0.2444444   0.2444444), wk =   0.0200000
        k(   25) = (   0.2333333   0.2333333   0.2333333), wk =   0.0200000
        k(   26) = (   0.2222222   0.2222222   0.2222222), wk =   0.0200000
        k(   27) = (   0.2111111   0.2111111   0.2111111), wk =   0.0200000
        k(   28) = (   0.2000000   0.2000000   0.2000000), wk =   0.0200000
        k(   29) = (   0.1888889   0.1888889   0.1888889), wk =   0.0200000
        k(   30) = (   0.1777778   0.1777778   0.1777778), wk =   0.0200000
        k(   31) = (   0.1666667   0.1666667   0.1666667), wk =   0.0200000
        k(   32) = (   0.1555556   0.1555556   0.1555556), wk =   0.0200000
        k(   33) = (   0.1444444   0.1444444   0.1444444), wk =   0.0200000
        k(   34) = (   0.1333333   0.1333333   0.1333333), wk =   0.0200000
        k(   35) = (   0.1222222   0.1222222   0.1222222), wk =   0.0200000
        k(   36) = (   0.1111111   0.1111111   0.1111111), wk =   0.0200000
        k(   37) = (   0.1000000   0.1000000   0.1000000), wk =   0.0200000
        k(   38) = (   0.0888889   0.0888889   0.0888889), wk =   0.0200000
        k(   39) = (   0.0777778   0.0777778   0.0777778), wk =   0.0200000
        k(   40) = (   0.0666667   0.0666667   0.0666667), wk =   0.0200000
        k(   41) = (   0.0555556   0.0555556   0.0555556), wk =   0.0200000
        k(   42) = (   0.0444444   0.0444444   0.0444444), wk =   0.0200000
        k(   43) = (   0.0333333   0.0333333   0.0333333), wk =   0.0200000
        k(   44) = (   0.0222222   0.0222222   0.0222222), wk =   0.0200000
        k(   45) = (   0.0111111   0.0111111   0.0111111), wk =   0.0200000
        k(   46) = (   0.0000000   0.0000000   0.0000000), wk =   0.0200000
        k(   47) = (   0.0092593  -0.0000000   0.0092593), wk =   0.0200000
        k(   48) = (   0.0185185  -0.0000000   0.0185185), wk =   0.0200000
        k(   49) = (   0.0277778  -0.0000000   0.0277778), wk =   0.0200000
        k(   50) = (   0.0370370  -0.0000000   0.0370370), wk =   0.0200000
        k(   51) = (   0.0462963   0.0000000   0.0462963), wk =   0.0200000
        k(   52) = (   0.0555556  -0.0000000   0.0555556), wk =   0.0200000
        k(   53) = (   0.0648148  -0.0000000   0.0648148), wk =   0.0200000
        k(   54) = (   0.0740741  -0.0000000   0.0740741), wk =   0.0200000
        k(   55) = (   0.0833333   0.0000000   0.0833333), wk =   0.0200000
        k(   56) = (   0.0925926   0.0000000   0.0925926), wk =   0.0200000
        k(   57) = (   0.1018518  -0.0000000   0.1018518), wk =   0.0200000
        k(   58) = (   0.1111111  -0.0000000   0.1111111), wk =   0.0200000
        k(   59) = (   0.1203704   0.0000000   0.1203704), wk =   0.0200000
        k(   60) = (   0.1296296  -0.0000000   0.1296296), wk =   0.0200000
        k(   61) = (   0.1388889   0.0000000   0.1388889), wk =   0.0200000
        k(   62) = (   0.1481482   0.0000000   0.1481482), wk =   0.0200000
        k(   63) = (   0.1574074   0.0000000   0.1574074), wk =   0.0200000
        k(   64) = (   0.1666667  -0.0000000   0.1666667), wk =   0.0200000
        k(   65) = (   0.1759259   0.0000000   0.1759259), wk =   0.0200000
        k(   66) = (   0.1851852  -0.0000000   0.1851852), wk =   0.0200000
        k(   67) = (   0.1944444  -0.0000000   0.1944444), wk =   0.0200000
        k(   68) = (   0.2037037  -0.0000000   0.2037037), wk =   0.0200000
        k(   69) = (   0.2129630  -0.0000000   0.2129630), wk =   0.0200000
        k(   70) = (   0.2222222  -0.0000000   0.2222222), wk =   0.0200000
        k(   71) = (   0.2314815  -0.0000000   0.2314815), wk =   0.0200000
        k(   72) = (   0.2407407   0.0000000   0.2407407), wk =   0.0200000
        k(   73) = (   0.2500000   0.0000000   0.2500000), wk =   0.0200000
        k(   74) = (   0.2592593  -0.0000000   0.2592593), wk =   0.0200000
        k(   75) = (   0.2685185  -0.0000000   0.2685185), wk =   0.0200000
        k(   76) = (   0.2777778   0.0000000   0.2777778), wk =   0.0200000
        k(   77) = (   0.2870370   0.0000000   0.2870370), wk =   0.0200000
        k(   78) = (   0.2962963   0.0000000   0.2962963), wk =   0.0200000
        k(   79) = (   0.3055556   0.0000000   0.3055556), wk =   0.0200000
        k(   80) = (   0.3148148  -0.0000000   0.3148148), wk =   0.0200000
        k(   81) = (   0.3240741   0.0000000   0.3240741), wk =   0.0200000
        k(   82) = (   0.3333333   0.0000000   0.3333333), wk =   0.0200000
        k(   83) = (   0.3425926  -0.0000000   0.3425926), wk =   0.0200000
        k(   84) = (   0.3518519  -0.0000000   0.3518519), wk =   0.0200000
        k(   85) = (   0.3611111  -0.0000000   0.3611111), wk =   0.0200000
        k(   86) = (   0.3703704   0.0000000   0.3703704), wk =   0.0200000
        k(   87) = (   0.3796296  -0.0000000   0.3796296), wk =   0.0200000
        k(   88) = (   0.3888889   0.0000000   0.3888889), wk =   0.0200000
        k(   89) = (   0.3981481   0.0000000   0.3981481), wk =   0.0200000
        k(   90) = (   0.4074074   0.0000000   0.4074074), wk =   0.0200000
        k(   91) = (   0.4166667  -0.0000000   0.4166667), wk =   0.0200000
        k(   92) = (   0.4259259  -0.0000000   0.4259259), wk =   0.0200000
        k(   93) = (   0.4351852   0.0000000   0.4351852), wk =   0.0200000
        k(   94) = (   0.4444444  -0.0000000   0.4444444), wk =   0.0200000
        k(   95) = (   0.4537037  -0.0000000   0.4537037), wk =   0.0200000
        k(   96) = (   0.4629630  -0.0000000   0.4629630), wk =   0.0200000
        k(   97) = (   0.4722222  -0.0000000   0.4722222), wk =   0.0200000
        k(   98) = (   0.4814815   0.0000000   0.4814815), wk =   0.0200000
        k(   99) = (   0.4907407   0.0000000   0.4907407), wk =   0.0200000
        k(  100) = (   0.5000000   0.0000000   0.5000000), wk =   0.0200000

     Dense  grid:     5985 G-vectors     FFT dimensions: (  32,  32,  32)

     Dynamical RAM for                 wfc:       0.05 MB

     Dynamical RAM for     wfc (w. buffer):       0.05 MB

     Dynamical RAM for           str. fact:       0.05 MB

     Dynamical RAM for           local pot:       0.00 MB

     Dynamical RAM for          nlocal pot:       0.13 MB

     Dynamical RAM for                qrad:       0.35 MB

     Dynamical RAM for          rho,v,vnew:       0.51 MB

     Dynamical RAM for           G-vectors:       0.19 MB

     Dynamical RAM for          h,s,v(r/c):       0.01 MB

     Dynamical RAM for          <psi|beta>:       0.00 MB

     Dynamical RAM for                 psi:       0.09 MB

     Dynamical RAM for                hpsi:       0.09 MB

     Dynamical RAM for      wfcinit/wfcrot:       0.39 MB

     Estimated static dynamical RAM per process >       1.99 MB

     Estimated max dynamical RAM per process >       2.38 MB

     Estimated total dynamical RAM >       9.52 MB

     The potential is recalculated from file :
     ./SI.save/charge-density

     Starting wfcs are   32 randomized atomic wfcs

     Band Structure Calculation
     Davidson diagonalization with overlap

     Computing kpt #:     1  of    50 on this pool
     total cpu time spent up to now is        0.4 secs

     Computing kpt #:     2  of    50 on this pool
     total cpu time spent up to now is        0.4 secs

     Computing kpt #:     3  of    50 on this pool
     total cpu time spent up to now is        0.5 secs

     Computing kpt #:     4  of    50 on this pool
     total cpu time spent up to now is        0.5 secs

     Computing kpt #:     5  of    50 on this pool
     total cpu time spent up to now is        0.6 secs

     Computing kpt #:     6  of    50 on this pool
     total cpu time spent up to now is        0.7 secs

     Computing kpt #:     7  of    50 on this pool
     total cpu time spent up to now is        0.7 secs

     Computing kpt #:     8  of    50 on this pool
     total cpu time spent up to now is        0.8 secs

     Computing kpt #:     9  of    50 on this pool
     total cpu time spent up to now is        0.8 secs

     Computing kpt #:    10  of    50 on this pool
     total cpu time spent up to now is        0.9 secs

     Computing kpt #:    11  of    50 on this pool
     total cpu time spent up to now is        1.0 secs

     Computing kpt #:    12  of    50 on this pool
     total cpu time spent up to now is        1.0 secs

     Computing kpt #:    13  of    50 on this pool
     total cpu time spent up to now is        1.1 secs

     Computing kpt #:    14  of    50 on this pool
     total cpu time spent up to now is        1.2 secs

     Computing kpt #:    15  of    50 on this pool
     total cpu time spent up to now is        1.3 secs

     Computing kpt #:    16  of    50 on this pool
     total cpu time spent up to now is        1.3 secs

     Computing kpt #:    17  of    50 on this pool
     total cpu time spent up to now is        1.4 secs

     Computing kpt #:    18  of    50 on this pool
     total cpu time spent up to now is        1.5 secs

     Computing kpt #:    19  of    50 on this pool
     total cpu time spent up to now is        1.6 secs

     Computing kpt #:    20  of    50 on this pool
     total cpu time spent up to now is        1.6 secs

     Computing kpt #:    21  of    50 on this pool
     total cpu time spent up to now is        1.7 secs

     Computing kpt #:    22  of    50 on this pool
     total cpu time spent up to now is        1.8 secs

     Computing kpt #:    23  of    50 on this pool
     total cpu time spent up to now is        1.8 secs

     Computing kpt #:    24  of    50 on this pool
     total cpu time spent up to now is        1.9 secs

     Computing kpt #:    25  of    50 on this pool
     total cpu time spent up to now is        2.0 secs

     Computing kpt #:    26  of    50 on this pool
     total cpu time spent up to now is        2.0 secs

     Computing kpt #:    27  of    50 on this pool
     total cpu time spent up to now is        2.1 secs

     Computing kpt #:    28  of    50 on this pool
     total cpu time spent up to now is        2.1 secs

     Computing kpt #:    29  of    50 on this pool
     total cpu time spent up to now is        2.2 secs

     Computing kpt #:    30  of    50 on this pool
     total cpu time spent up to now is        2.3 secs

     Computing kpt #:    31  of    50 on this pool
     total cpu time spent up to now is        2.3 secs

     Computing kpt #:    32  of    50 on this pool
     total cpu time spent up to now is        2.4 secs

     Computing kpt #:    33  of    50 on this pool
     total cpu time spent up to now is        2.4 secs

     Computing kpt #:    34  of    50 on this pool
     total cpu time spent up to now is        2.5 secs

     Computing kpt #:    35  of    50 on this pool
     total cpu time spent up to now is        2.5 secs

     Computing kpt #:    36  of    50 on this pool
     total cpu time spent up to now is        2.6 secs

     Computing kpt #:    37  of    50 on this pool
     total cpu time spent up to now is        2.6 secs

     Computing kpt #:    38  of    50 on this pool
     total cpu time spent up to now is        2.7 secs

     Computing kpt #:    39  of    50 on this pool
     total cpu time spent up to now is        2.7 secs

     Computing kpt #:    40  of    50 on this pool
     total cpu time spent up to now is        2.8 secs

     Computing kpt #:    41  of    50 on this pool
     total cpu time spent up to now is        2.8 secs

     Computing kpt #:    42  of    50 on this pool
     total cpu time spent up to now is        2.9 secs

     Computing kpt #:    43  of    50 on this pool
     total cpu time spent up to now is        2.9 secs

     Computing kpt #:    44  of    50 on this pool
     total cpu time spent up to now is        3.0 secs

     Computing kpt #:    45  of    50 on this pool
     total cpu time spent up to now is        3.0 secs

     Computing kpt #:    46  of    50 on this pool
     total cpu time spent up to now is        3.1 secs

     Computing kpt #:    47  of    50 on this pool
     total cpu time spent up to now is        3.1 secs

     Computing kpt #:    48  of    50 on this pool
     total cpu time spent up to now is        3.2 secs

     Computing kpt #:    49  of    50 on this pool
     total cpu time spent up to now is        3.3 secs

     Computing kpt #:    50  of    50 on this pool
     total cpu time spent up to now is        3.3 secs

     ethr =  1.25E-10,  avg # of iterations = 20.4

     total cpu time spent up to now is        3.3 secs

     End of band structure calculation

          k =-0.5000 0.5000 0.5000 (   754 PWs)   bands (ev):

    -3.4008  -0.7429   5.0272   5.0272   7.7525   9.5813   9.5813  13.9622

          k =-0.4889 0.4889 0.4889 (   754 PWs)   bands (ev):

    -3.4079  -0.7327   5.0281   5.0281   7.7535   9.5824   9.5824  13.9638

          k =-0.4778 0.4778 0.4778 (   754 PWs)   bands (ev):

    -3.4290  -0.7025   5.0308   5.0308   7.7566   9.5854   9.5854  13.9685

          k =-0.4667 0.4667 0.4667 (   757 PWs)   bands (ev):

    -3.4633  -0.6532   5.0352   5.0352   7.7616   9.5905   9.5905  13.9762

          k =-0.4556 0.4556 0.4556 (   763 PWs)   bands (ev):

    -3.5095  -0.5862   5.0414   5.0414   7.7686   9.5975   9.5975  13.9869

          k =-0.4444 0.4444 0.4444 (   757 PWs)   bands (ev):

    -3.5649  -0.5030   5.0494   5.0494   7.7782   9.6063   9.6063  14.0003

          k =-0.4333 0.4333 0.4333 (   760 PWs)   bands (ev):

    -3.6290  -0.4058   5.0592   5.0592   7.7893   9.6168   9.6168  14.0161

          k =-0.4222 0.4222 0.4222 (   760 PWs)   bands (ev):

    -3.6994  -0.2958   5.0707   5.0707   7.8025   9.6288   9.6288  14.0340

          k =-0.4111 0.4111 0.4111 (   760 PWs)   bands (ev):

    -3.7749  -0.1747   5.0840   5.0840   7.8176   9.6421   9.6421  14.0532

          k =-0.4000 0.4000 0.4000 (   763 PWs)   bands (ev):

    -3.8543  -0.0439   5.0990   5.0990   7.8347   9.6565   9.6565  14.0728

          k =-0.3889 0.3889 0.3889 (   763 PWs)   bands (ev):

    -3.9363   0.0956   5.1158   5.1158   7.8537   9.6717   9.6717  14.0919

          k =-0.3778 0.3778 0.3778 (   763 PWs)   bands (ev):

    -4.0200   0.2429   5.1344   5.1344   7.8748   9.6873   9.6873  14.1085

          k =-0.3667 0.3667 0.3667 (   763 PWs)   bands (ev):

    -4.1047   0.3970   5.1547   5.1547   7.8977   9.7030   9.7030  14.1201

          k =-0.3556 0.3556 0.3556 (   757 PWs)   bands (ev):

    -4.1897   0.5576   5.1767   5.1767   7.9236   9.7185   9.7185  14.1230

          k =-0.3444 0.3444 0.3444 (   757 PWs)   bands (ev):

    -4.2744   0.7234   5.2004   5.2004   7.9502   9.7330   9.7330  14.1120

          k =-0.3333 0.3333 0.3333 (   757 PWs)   bands (ev):

    -4.3584   0.8943   5.2258   5.2258   7.9787   9.7462   9.7462  14.0807

          k =-0.3222 0.3222 0.3222 (   751 PWs)   bands (ev):

    -4.4412   1.0700   5.2529   5.2529   8.0100   9.7576   9.7576  14.0230

          k =-0.3111 0.3111 0.3111 (   757 PWs)   bands (ev):

    -4.5232   1.2498   5.2816   5.2816   8.0420   9.7663   9.7663  13.9356

          k =-0.3000 0.3000 0.3000 (   757 PWs)   bands (ev):

    -4.6031   1.4336   5.3119   5.3119   8.0756   9.7720   9.7720  13.8198

          k =-0.2889 0.2889 0.2889 (   757 PWs)   bands (ev):

    -4.6811   1.6210   5.3438   5.3438   8.1108   9.7739   9.7739  13.6804

          k =-0.2778 0.2778 0.2778 (   757 PWs)   bands (ev):

    -4.7570   1.8117   5.3772   5.3772   8.1475   9.7714   9.7714  13.5233

          k =-0.2667 0.2667 0.2667 (   757 PWs)   bands (ev):

    -4.8307   2.0055   5.4120   5.4120   8.1856   9.7639   9.7639  13.3537

          k =-0.2556 0.2556 0.2556 (   754 PWs)   bands (ev):

    -4.9018   2.2023   5.4482   5.4482   8.2251   9.7511   9.7511  13.1751

          k =-0.2444 0.2444 0.2444 (   754 PWs)   bands (ev):

    -4.9707   2.4016   5.4858   5.4858   8.2657   9.7325   9.7325  12.9902

          k =-0.2333 0.2333 0.2333 (   754 PWs)   bands (ev):

    -5.0370   2.6032   5.5246   5.5246   8.3074   9.7080   9.7080  12.8008

          k =-0.2222 0.2222 0.2222 (   751 PWs)   bands (ev):

    -5.1004   2.8070   5.5645   5.5645   8.3500   9.6774   9.6774  12.6082

          k =-0.2111 0.2111 0.2111 (   757 PWs)   bands (ev):

    -5.1615   3.0125   5.6054   5.6054   8.3930   9.6410   9.6410  12.4125

          k =-0.2000 0.2000 0.2000 (   751 PWs)   bands (ev):

    -5.2195   3.2199   5.6473   5.6473   8.4374   9.5992   9.5992  12.2161

          k =-0.1889 0.1889 0.1889 (   754 PWs)   bands (ev):

    -5.2746   3.4281   5.6898   5.6898   8.4811   9.5522   9.5522  12.0172

          k =-0.1778 0.1778 0.1778 (   760 PWs)   bands (ev):

    -5.3270   3.6369   5.7329   5.7329   8.5251   9.5009   9.5009  11.8174

          k =-0.1667 0.1667 0.1667 (   748 PWs)   bands (ev):

    -5.3758   3.8467   5.7764   5.7764   8.5699   9.4461   9.4461  11.6184

          k =-0.1556 0.1556 0.1556 (   749 PWs)   bands (ev):

    -5.4220   4.0564   5.8199   5.8199   8.6127   9.3885   9.3885  11.4192

          k =-0.1444 0.1444 0.1444 (   743 PWs)   bands (ev):

    -5.4651   4.2659   5.8632   5.8632   8.6545   9.3290   9.3290  11.2222

          k =-0.1333 0.1333 0.1333 (   743 PWs)   bands (ev):

    -5.5050   4.4738   5.9061   5.9061   8.6945   9.2686   9.2686  11.0251

          k =-0.1222 0.1222 0.1222 (   743 PWs)   bands (ev):

    -5.5419   4.6796   5.9481   5.9481   8.7321   9.2082   9.2082  10.8312

          k =-0.1111 0.1111 0.1111 (   743 PWs)   bands (ev):

    -5.5757   4.8825   5.9889   5.9889   8.7668   9.1488   9.1488  10.6413

          k =-0.1000 0.1000 0.1000 (   737 PWs)   bands (ev):

    -5.6061   5.0817   6.0281   6.0281   8.7975   9.0913   9.0913  10.4575

          k =-0.0889 0.0889 0.0889 (   737 PWs)   bands (ev):

    -5.6336   5.2744   6.0652   6.0652   8.8232   9.0367   9.0367  10.2809

          k =-0.0778 0.0778 0.0778 (   737 PWs)   bands (ev):

    -5.6578   5.4594   6.0996   6.0996   8.8427   8.9858   8.9858  10.1149

          k =-0.0667 0.0667 0.0667 (   737 PWs)   bands (ev):

    -5.6789   5.6338   6.1310   6.1310   8.8546   8.9395   8.9395   9.9630

          k =-0.0556 0.0556 0.0556 (   737 PWs)   bands (ev):

    -5.6967   5.7946   6.1587   6.1587   8.8576   8.8987   8.8987   9.8292

          k =-0.0444 0.0444 0.0444 (   737 PWs)   bands (ev):

    -5.7113   5.9374   6.1822   6.1822   8.8513   8.8641   8.8641   9.7178

          k =-0.0333 0.0333 0.0333 (   737 PWs)   bands (ev):

    -5.7226   6.0573   6.2011   6.2011   8.8365   8.8365   8.8373   9.6319

          k =-0.0222 0.0222 0.0222 (   737 PWs)   bands (ev):

    -5.7308   6.1488   6.2149   6.2149   8.8163   8.8163   8.8199   9.5723

          k =-0.0111 0.0111 0.0111 (   737 PWs)   bands (ev):

    -5.7356   6.2064   6.2233   6.2233   8.8040   8.8040   8.8054   9.5379

          k = 0.0000 0.0000 0.0000 (   749 PWs)   bands (ev):

    -5.7381   6.2260   6.2260   6.2260   8.7998   8.7998   8.7998   9.5268

          k =-0.0185 0.0000-0.0000 (   741 PWs)   bands (ev):

    -5.7360   6.2156   6.2196   6.2196   8.7961   8.8082   8.8082   9.5370

          k =-0.0370 0.0000-0.0000 (   741 PWs)   bands (ev):

    -5.7315   6.1846   6.2002   6.2002   8.7848   8.8331   8.8331   9.5672

          k =-0.0556 0.0000-0.0000 (   741 PWs)   bands (ev):

    -5.7240   6.1343   6.1687   6.1687   8.7663   8.8738   8.8738   9.6161

          k =-0.0741 0.0000-0.0000 (   741 PWs)   bands (ev):

    -5.7135   6.0663   6.1263   6.1263   8.7408   8.9291   8.9291   9.6816

          k =-0.0926-0.0000 0.0000 (   741 PWs)   bands (ev):

    -5.6999   5.9827   6.0742   6.0742   8.7087   8.9977   8.9977   9.7615

          k =-0.1111 0.0000-0.0000 (   741 PWs)   bands (ev):

    -5.6834   5.8855   6.0139   6.0139   8.6706   9.0781   9.0781   9.8528

          k =-0.1296-0.0000 0.0000 (   733 PWs)   bands (ev):

    -5.6633   5.7769   5.9468   5.9468   8.6270   9.1690   9.1690   9.9528

          k =-0.1481 0.0000-0.0000 (   733 PWs)   bands (ev):

    -5.6408   5.6584   5.8742   5.8742   8.5783   9.2690   9.2690  10.0584

          k =-0.1667 0.0000-0.0000 (   733 PWs)   bands (ev):

    -5.6153   5.5317   5.7973   5.7973   8.5253   9.3769   9.3769  10.1664

          k =-0.1852-0.0000 0.0000 (   737 PWs)   bands (ev):

    -5.5869   5.3980   5.7170   5.7170   8.4684   9.4918   9.4918  10.2728

          k =-0.2037-0.0000 0.0000 (   737 PWs)   bands (ev):

    -5.5554   5.2589   5.6342   5.6342   8.4084   9.6127   9.6127  10.3741

          k =-0.2222 0.0000-0.0000 (   745 PWs)   bands (ev):

    -5.5213   5.1147   5.5496   5.5496   8.3455   9.7389   9.7389  10.4646

          k =-0.2407 0.0000-0.0000 (   745 PWs)   bands (ev):

    -5.4838   4.9669   5.4640   5.4640   8.2807   9.8697   9.8697  10.5395

          k =-0.2593-0.0000 0.0000 (   753 PWs)   bands (ev):

    -5.4435   4.8151   5.3777   5.3777   8.2142  10.0045  10.0045  10.5915

          k =-0.2778 0.0000-0.0000 (   753 PWs)   bands (ev):

    -5.4001   4.6614   5.2914   5.2914   8.1466  10.1430  10.1430  10.6165

          k =-0.2963 0.0000-0.0000 (   753 PWs)   bands (ev):

    -5.3538   4.5053   5.2052   5.2052   8.0783  10.2847  10.2847  10.6103

          k =-0.3148-0.0000 0.0000 (   761 PWs)   bands (ev):

    -5.3049   4.3469   5.1196   5.1196   8.0092  10.4293  10.4293  10.5721

          k =-0.3333 0.0000-0.0000 (   753 PWs)   bands (ev):

    -5.2528   4.1879   5.0348   5.0348   7.9405  10.5068  10.5767  10.5767

          k =-0.3519-0.0000 0.0000 (   745 PWs)   bands (ev):

    -5.1975   4.0273   4.9510   4.9510   7.8721  10.4175  10.7264  10.7264

          k =-0.3704-0.0000 0.0000 (   745 PWs)   bands (ev):

    -5.1395   3.8652   4.8685   4.8685   7.8044  10.3102  10.8780  10.8780

          k =-0.3889 0.0000-0.0000 (   745 PWs)   bands (ev):

    -5.0787   3.7022   4.7874   4.7874   7.7375  10.1899  11.0315  11.0315

          k =-0.4074-0.0000 0.0000 (   745 PWs)   bands (ev):

    -5.0149   3.5384   4.7079   4.7079   7.6717  10.0608  11.1868  11.1868

          k =-0.4259 0.0000-0.0000 (   745 PWs)   bands (ev):

    -4.9484   3.3740   4.6300   4.6300   7.6073   9.9259  11.3437  11.3437

          k =-0.4444 0.0000-0.0000 (   745 PWs)   bands (ev):

    -4.8789   3.2090   4.5540   4.5540   7.5444   9.7875  11.5020  11.5020

          k =-0.4630-0.0000 0.0000 (   745 PWs)   bands (ev):

    -4.8067   3.0435   4.4798   4.4798   7.4833   9.6474  11.6617  11.6617

          k =-0.4815 0.0000-0.0000 (   733 PWs)   bands (ev):

    -4.7311   2.8782   4.4077   4.4077   7.4241   9.5073  11.8231  11.8231

          k =-0.5000 0.0000 0.0000 (   729 PWs)   bands (ev):

    -4.6530   2.7121   4.3376   4.3376   7.3670   9.3676  11.9853  11.9853

          k =-0.5185-0.0000 0.0000 (   729 PWs)   bands (ev):

    -4.5723   2.5459   4.2697   4.2697   7.3120   9.2294  12.1485  12.1485

          k =-0.5370-0.0000 0.0000 (   737 PWs)   bands (ev):

    -4.4889   2.3791   4.2039   4.2039   7.2593   9.0928  12.3127  12.3127

          k =-0.5556 0.0000-0.0000 (   745 PWs)   bands (ev):

    -4.4031   2.2122   4.1404   4.1404   7.2085   8.9588  12.4779  12.4779

          k =-0.5741 0.0000-0.0000 (   745 PWs)   bands (ev):

    -4.3142   2.0460   4.0792   4.0792   7.1608   8.8283  12.6441  12.6441

          k =-0.5926 0.0000-0.0000 (   745 PWs)   bands (ev):

    -4.2226   1.8799   4.0204   4.0204   7.1158   8.7011  12.8111  12.8111

          k =-0.6111-0.0000 0.0000 (   745 PWs)   bands (ev):

    -4.1283   1.7141   3.9640   3.9640   7.0736   8.5775  12.9790  12.9790

          k =-0.6296-0.0000 0.0000 (   745 PWs)   bands (ev):

    -4.0314   1.5485   3.9100   3.9100   7.0342   8.4576  13.1476  13.1476

          k =-0.6481-0.0000 0.0000 (   749 PWs)   bands (ev):

    -3.9319   1.3828   3.8584   3.8584   6.9978   8.3416  13.3170  13.3170

          k =-0.6667 0.0000-0.0000 (   749 PWs)   bands (ev):

    -3.8297   1.2180   3.8094   3.8094   6.9643   8.2297  13.4872  13.4872

          k =-0.6852 0.0000-0.0000 (   749 PWs)   bands (ev):

    -3.7251   1.0538   3.7628   3.7628   6.9339   8.1219  13.6580  13.6580

          k =-0.7037-0.0000 0.0000 (   749 PWs)   bands (ev):

    -3.6178   0.8901   3.7188   3.7188   6.9067   8.0183  13.8295  13.8295

          k =-0.7222-0.0000 0.0000 (   753 PWs)   bands (ev):

    -3.5087   0.7275   3.6774   3.6774   6.8824   7.9189  14.0017  14.0017

          k =-0.7407-0.0000 0.0000 (   753 PWs)   bands (ev):

    -3.3965   0.5652   3.6386   3.6386   6.8617   7.8239  14.1744  14.1744

          k =-0.7593 0.0000-0.0000 (   753 PWs)   bands (ev):

    -3.2818   0.4037   3.6023   3.6023   6.8443   7.7333  14.3476  14.3476

          k =-0.7778 0.0000-0.0000 (   753 PWs)   bands (ev):

    -3.1647   0.2431   3.5687   3.5687   6.8304   7.6470  14.5212  14.5212

          k =-0.7963 0.0000-0.0000 (   753 PWs)   bands (ev):

    -3.0453   0.0835   3.5378   3.5378   6.8199   7.5651  14.6952  14.6952

          k =-0.8148-0.0000 0.0000 (   753 PWs)   bands (ev):

    -2.9235  -0.0751   3.5094   3.5094   6.8130   7.4876  14.8692  14.8692

          k =-0.8333-0.0000 0.0000 (   749 PWs)   bands (ev):

    -2.7995  -0.2322   3.4838   3.4838   6.8097   7.4147  15.0433  15.0433

          k =-0.8519 0.0000-0.0000 (   749 PWs)   bands (ev):

    -2.6732  -0.3885   3.4608   3.4608   6.8099   7.3458  15.2168  15.2168

          k =-0.8704 0.0000-0.0000 (   749 PWs)   bands (ev):

    -2.5447  -0.5436   3.4405   3.4405   6.8138   7.2813  15.3893  15.3893

          k =-0.8889 0.0000-0.0000 (   745 PWs)   bands (ev):

    -2.4139  -0.6971   3.4229   3.4229   6.8215   7.2211  15.5598  15.5598

          k =-0.9074-0.0000 0.0000 (   745 PWs)   bands (ev):

    -2.2811  -0.8494   3.4080   3.4080   6.8330   7.1652  15.7271  15.7271

          k =-0.9259-0.0000 0.0000 (   745 PWs)   bands (ev):

    -2.1463  -1.0002   3.3958   3.3958   6.8482   7.1135  15.8885  15.8885

          k =-0.9444-0.0000 0.0000 (   741 PWs)   bands (ev):

    -2.0094  -1.1492   3.3863   3.3863   6.8674   7.0661  16.0398  16.0398

          k =-0.9630 0.0000-0.0000 (   740 PWs)   bands (ev):

    -1.8706  -1.2969   3.3795   3.3795   6.8904   7.0228  16.1716  16.1716

          k =-0.9815 0.0000-0.0000 (   740 PWs)   bands (ev):

    -1.7299  -1.4430   3.3754   3.3754   6.9175   6.9836  16.2676  16.2676

          k =-1.0000 0.0000 0.0000 (   740 PWs)   bands (ev):

    -1.5873  -1.5873   3.3741   3.3741   6.9485   6.9485  16.3041  16.3041

     Writing all to output data dir ./SI.save/
 
     init_run     :      0.03s CPU      0.07s WALL (       1 calls)
     electrons    :      2.42s CPU      2.99s WALL (       1 calls)

     Called by init_run:
     wfcinit      :      0.00s CPU      0.00s WALL (       1 calls)
     wfcinit:atom :      0.00s CPU      0.00s WALL (      50 calls)
     wfcinit:wfcr :      0.45s CPU      0.56s WALL (      50 calls)
     potinit      :      0.01s CPU      0.01s WALL (       1 calls)
     hinit0       :      0.01s CPU      0.02s WALL (       1 calls)

     Called by electrons:
     c_bands      :      2.42s CPU      2.98s WALL (       1 calls)
     v_of_rho     :      0.01s CPU      0.01s WALL (       1 calls)
     v_h          :      0.00s CPU      0.00s WALL (       1 calls)
     v_xc         :      0.01s CPU      0.01s WALL (       1 calls)

     Called by c_bands:
     init_us_2    :      0.00s CPU      0.00s WALL (      50 calls)
     init_us_2:cp :      0.00s CPU      0.00s WALL (      50 calls)
     cegterg      :      1.90s CPU      2.33s WALL (      77 calls)

     Called by sum_band:

     Called by *egterg:
     cdiaghg      :      0.09s CPU      0.12s WALL (    1256 calls)
     cegterg:over :      0.09s CPU      0.11s WALL (    1206 calls)
     cegterg:upda :      0.01s CPU      0.02s WALL (    1206 calls)
     cegterg:last :      0.02s CPU      0.03s WALL (     759 calls)
     h_psi        :      2.10s CPU      2.57s WALL (    1333 calls)
     g_psi        :      0.00s CPU      0.00s WALL (    1206 calls)

     Called by h_psi:
     h_psi:calbec :      0.05s CPU      0.06s WALL (    1333 calls)
     vloc_psi     :      2.02s CPU      2.47s WALL (    1333 calls)
     add_vuspsi   :      0.02s CPU      0.03s WALL (    1333 calls)

     General routines
     calbec       :      0.05s CPU      0.06s WALL (    1333 calls)
     fft          :      0.00s CPU      0.02s WALL (      10 calls)
     fftw         :      1.92s CPU      2.34s WALL (   15446 calls)
     davcio       :      0.00s CPU      0.02s WALL (     100 calls)
 
     Parallel routines
 
     PWSCF        :      2.65s CPU      3.45s WALL

 
   This run was terminated on:  10: 7:45  17Mar2023            

=------------------------------------------------------------------------------=
   JOB DONE.
=------------------------------------------------------------------------------=
